n -t * -s 0  -x 125 -y 250 -Z 0 -z 10  -v circle -c green
n -t * -s 1  -x 175 -y 250 -Z 0 -z 10  -v circle -c green
n -t * -s 2  -x 225 -y 250 -Z 0 -z 10  -v circle -c green
n -t * -s 3  -x 275 -y 250 -Z 0 -z 10  -v circle -c green
n -t * -s 4  -x 325 -y 250 -Z 0 -z 10  -v circle -c green
n -t * -s 5  -x 375 -y 250 -Z 0 -z 10  -v circle -c green
n -t * -s 6  -x 150 -y 280 -Z 0 -z 10  -v circle -c green
n -t * -s 7  -x 200 -y 280 -Z 0 -z 10  -v circle -c green
n -t * -s 8  -x 250 -y 280 -Z 0 -z 10  -v circle -c green
n -t * -s 9  -x 300 -y 280 -Z 0 -z 10  -v circle -c green
n -t * -s 10  -x 350 -y 280 -Z 0 -z 10  -v circle -c green
n -t * -s 11  -x 150 -y 220 -Z 0 -z 10  -v circle -c green
n -t * -s 12  -x 200 -y 220 -Z 0 -z 10  -v circle -c green
n -t * -s 13  -x 250 -y 220 -Z 0 -z 10  -v circle -c green
n -t * -s 14  -x 300 -y 220 -Z 0 -z 10  -v circle -c green
n -t * -s 15  -x 350 -y 220 -Z 0 -z 10  -v circle -c green
n -t * -s 16  -x 175 -y 310 -Z 0 -z 10  -v circle -c green
n -t * -s 17  -x 225 -y 310 -Z 0 -z 10  -v circle -c green
n -t * -s 18  -x 275 -y 310 -Z 0 -z 10  -v circle -c green
n -t * -s 19  -x 325 -y 310 -Z 0 -z 10  -v circle -c green
n -t * -s 20  -x 175 -y 190 -Z 0 -z 10  -v circle -c green
n -t * -s 21  -x 225 -y 190 -Z 0 -z 10  -v circle -c green
n -t * -s 22  -x 275 -y 190 -Z 0 -z 10  -v circle -c green
n -t * -s 23  -x 325 -y 190 -Z 0 -z 10  -v circle -c green
n -t * -s 24  -x 200 -y 340 -Z 0 -z 10  -v circle -c green
n -t * -s 25  -x 250 -y 340 -Z 0 -z 10  -v circle -c green
n -t * -s 26  -x 300 -y 340 -Z 0 -z 10  -v circle -c green
n -t * -s 27  -x 200 -y 160 -Z 0 -z 10  -v circle -c green
n -t * -s 28  -x 250 -y 160 -Z 0 -z 10  -v circle -c green
n -t * -s 29  -x 300 -y 160 -Z 0 -z 10  -v circle -c green
n -t * -s 30  -x 225 -y 370 -Z 0 -z 10  -v circle -c green
n -t * -s 31  -x 275 -y 370 -Z 0 -z 10  -v circle -c green
n -t * -s 32  -x 225 -y 130 -Z 0 -z 10  -v circle -c green
n -t * -s 33  -x 275 -y 130 -Z 0 -z 10  -v circle -c green
n -t * -s 34  -x 250 -y 400 -Z 0 -z 10  -v circle -c green
n -t * -s 35  -x 250 -y 100 -Z 0 -z 10  -v circle -c green
n -t * -s 36  -x 2 -y 2 -Z 0 -z 10  -v circle -c green
V -t * -v 1.0a5 -a 0
W -t * -x 500 -y 500
A -t * -n 1 -p 0 -o 0x7fffffff -c 30 -a 1
A -t * -h 1 -m 1073741823 -s 0
+ -t 0.000000000 -s 36 -d -1 -p cbr -e 512 -c 2 -a 0 -i 0 -k AGT 
- -t 0.000000000 -s 36 -d -1 -p cbr -e 512 -c 2 -a 0 -i 0 -k AGT
h -t 0.000000000 -s 36 -d -1 -p cbr -e 512 -c 2 -a 0 -i 0 -k AGT
+ -t 0.004042075 -s 36 -d -1 -p DSR -e 32 -c 2 -a 0 -i 1 -k RTR 
- -t 0.004042075 -s 36 -d -1 -p DSR -e 32 -c 2 -a 0 -i 1 -k RTR
h -t 0.004042075 -s 36 -d -1 -p DSR -e 32 -c 2 -a 0 -i 1 -k RTR
+ -t 0.009142857 -s 36 -d -1 -p cbr -e 512 -c 2 -a 0 -i 2 -k AGT 
- -t 0.009142857 -s 36 -d -1 -p cbr -e 512 -c 2 -a 0 -i 2 -k AGT
h -t 0.009142857 -s 36 -d -1 -p cbr -e 512 -c 2 -a 0 -i 2 -k AGT
+ -t 0.018285714 -s 36 -d -1 -p cbr -e 512 -c 2 -a 0 -i 4 -k AGT 
- -t 0.018285714 -s 36 -d -1 -p cbr -e 512 -c 2 -a 0 -i 4 -k AGT
h -t 0.018285714 -s 36 -d -1 -p cbr -e 512 -c 2 -a 0 -i 4 -k AGT
+ -t 0.027428571 -s 36 -d -1 -p cbr -e 512 -c 2 -a 0 -i 6 -k AGT 
- -t 0.027428571 -s 36 -d -1 -p cbr -e 512 -c 2 -a 0 -i 6 -k AGT
h -t 0.027428571 -s 36 -d -1 -p cbr -e 512 -c 2 -a 0 -i 6 -k AGT
+ -t 0.036571429 -s 36 -d -1 -p cbr -e 512 -c 2 -a 0 -i 12 -k AGT 
- -t 0.036571429 -s 36 -d -1 -p cbr -e 512 -c 2 -a 0 -i 12 -k AGT
h -t 0.036571429 -s 36 -d -1 -p cbr -e 512 -c 2 -a 0 -i 12 -k AGT
+ -t 0.039226228 -s 36 -d -1 -p DSR -e 32 -c 2 -a 0 -i 8 -k RTR 
- -t 0.039226228 -s 36 -d -1 -p DSR -e 32 -c 2 -a 0 -i 8 -k RTR
h -t 0.039226228 -s 36 -d -1 -p DSR -e 32 -c 2 -a 0 -i 8 -k RTR
+ -t 0.045714286 -s 36 -d -1 -p cbr -e 512 -c 2 -a 0 -i 14 -k AGT 
- -t 0.045714286 -s 36 -d -1 -p cbr -e 512 -c 2 -a 0 -i 14 -k AGT
h -t 0.045714286 -s 36 -d -1 -p cbr -e 512 -c 2 -a 0 -i 14 -k AGT
+ -t 0.054857143 -s 36 -d -1 -p cbr -e 512 -c 2 -a 0 -i 16 -k AGT 
- -t 0.054857143 -s 36 -d -1 -p cbr -e 512 -c 2 -a 0 -i 16 -k AGT
h -t 0.054857143 -s 36 -d -1 -p cbr -e 512 -c 2 -a 0 -i 16 -k AGT
+ -t 0.064000000 -s 36 -d -1 -p cbr -e 512 -c 2 -a 0 -i 18 -k AGT 
- -t 0.064000000 -s 36 -d -1 -p cbr -e 512 -c 2 -a 0 -i 18 -k AGT
h -t 0.064000000 -s 36 -d -1 -p cbr -e 512 -c 2 -a 0 -i 18 -k AGT
+ -t 0.073142857 -s 36 -d -1 -p cbr -e 512 -c 2 -a 0 -i 20 -k AGT 
- -t 0.073142857 -s 36 -d -1 -p cbr -e 512 -c 2 -a 0 -i 20 -k AGT
h -t 0.073142857 -s 36 -d -1 -p cbr -e 512 -c 2 -a 0 -i 20 -k AGT
+ -t 0.082285714 -s 36 -d -1 -p cbr -e 512 -c 2 -a 0 -i 31 -k AGT 
- -t 0.082285714 -s 36 -d -1 -p cbr -e 512 -c 2 -a 0 -i 31 -k AGT
h -t 0.082285714 -s 36 -d -1 -p cbr -e 512 -c 2 -a 0 -i 31 -k AGT
+ -t 0.091428571 -s 36 -d -1 -p cbr -e 512 -c 2 -a 0 -i 33 -k AGT 
- -t 0.091428571 -s 36 -d -1 -p cbr -e 512 -c 2 -a 0 -i 33 -k AGT
h -t 0.091428571 -s 36 -d -1 -p cbr -e 512 -c 2 -a 0 -i 33 -k AGT
+ -t 0.100571429 -s 36 -d -1 -p cbr -e 512 -c 2 -a 0 -i 35 -k AGT 
- -t 0.100571429 -s 36 -d -1 -p cbr -e 512 -c 2 -a 0 -i 35 -k AGT
h -t 0.100571429 -s 36 -d -1 -p cbr -e 512 -c 2 -a 0 -i 35 -k AGT
+ -t 0.109714286 -s 36 -d -1 -p cbr -e 512 -c 2 -a 0 -i 49 -k AGT 
- -t 0.109714286 -s 36 -d -1 -p cbr -e 512 -c 2 -a 0 -i 49 -k AGT
h -t 0.109714286 -s 36 -d -1 -p cbr -e 512 -c 2 -a 0 -i 49 -k AGT
+ -t 0.118857143 -s 36 -d -1 -p cbr -e 512 -c 2 -a 0 -i 51 -k AGT 
- -t 0.118857143 -s 36 -d -1 -p cbr -e 512 -c 2 -a 0 -i 51 -k AGT
h -t 0.118857143 -s 36 -d -1 -p cbr -e 512 -c 2 -a 0 -i 51 -k AGT
+ -t 0.128000000 -s 36 -d -1 -p cbr -e 512 -c 2 -a 0 -i 53 -k AGT 
- -t 0.128000000 -s 36 -d -1 -p cbr -e 512 -c 2 -a 0 -i 53 -k AGT
h -t 0.128000000 -s 36 -d -1 -p cbr -e 512 -c 2 -a 0 -i 53 -k AGT
+ -t 0.137142857 -s 36 -d -1 -p cbr -e 512 -c 2 -a 0 -i 55 -k AGT 
- -t 0.137142857 -s 36 -d -1 -p cbr -e 512 -c 2 -a 0 -i 55 -k AGT
h -t 0.137142857 -s 36 -d -1 -p cbr -e 512 -c 2 -a 0 -i 55 -k AGT
+ -t 0.146285714 -s 36 -d -1 -p cbr -e 512 -c 2 -a 0 -i 57 -k AGT 
- -t 0.146285714 -s 36 -d -1 -p cbr -e 512 -c 2 -a 0 -i 57 -k AGT
h -t 0.146285714 -s 36 -d -1 -p cbr -e 512 -c 2 -a 0 -i 57 -k AGT
+ -t 0.155428571 -s 36 -d -1 -p cbr -e 512 -c 2 -a 0 -i 76 -k AGT 
- -t 0.155428571 -s 36 -d -1 -p cbr -e 512 -c 2 -a 0 -i 76 -k AGT
h -t 0.155428571 -s 36 -d -1 -p cbr -e 512 -c 2 -a 0 -i 76 -k AGT
+ -t 0.164571429 -s 36 -d -1 -p cbr -e 512 -c 2 -a 0 -i 78 -k AGT 
- -t 0.164571429 -s 36 -d -1 -p cbr -e 512 -c 2 -a 0 -i 78 -k AGT
h -t 0.164571429 -s 36 -d -1 -p cbr -e 512 -c 2 -a 0 -i 78 -k AGT
+ -t 0.173714286 -s 36 -d -1 -p cbr -e 512 -c 2 -a 0 -i 80 -k AGT 
- -t 0.173714286 -s 36 -d -1 -p cbr -e 512 -c 2 -a 0 -i 80 -k AGT
h -t 0.173714286 -s 36 -d -1 -p cbr -e 512 -c 2 -a 0 -i 80 -k AGT
+ -t 0.182857143 -s 36 -d -1 -p cbr -e 512 -c 2 -a 0 -i 82 -k AGT 
- -t 0.182857143 -s 36 -d -1 -p cbr -e 512 -c 2 -a 0 -i 82 -k AGT
h -t 0.182857143 -s 36 -d -1 -p cbr -e 512 -c 2 -a 0 -i 82 -k AGT
+ -t 0.192000000 -s 36 -d -1 -p cbr -e 512 -c 2 -a 0 -i 105 -k AGT 
- -t 0.192000000 -s 36 -d -1 -p cbr -e 512 -c 2 -a 0 -i 105 -k AGT
h -t 0.192000000 -s 36 -d -1 -p cbr -e 512 -c 2 -a 0 -i 105 -k AGT
n -t 0.200000 -s 36 -x 2.000000 -y 2.000000 -U 19.508897 -V 15.633392 -T 15.223823
+ -t 0.201142857 -s 36 -d -1 -p cbr -e 512 -c 2 -a 0 -i 107 -k AGT 
- -t 0.201142857 -s 36 -d -1 -p cbr -e 512 -c 2 -a 0 -i 107 -k AGT
h -t 0.201142857 -s 36 -d -1 -p cbr -e 512 -c 2 -a 0 -i 107 -k AGT
+ -t 0.210285714 -s 36 -d -1 -p cbr -e 512 -c 2 -a 0 -i 109 -k AGT 
- -t 0.210285714 -s 36 -d -1 -p cbr -e 512 -c 2 -a 0 -i 109 -k AGT
h -t 0.210285714 -s 36 -d -1 -p cbr -e 512 -c 2 -a 0 -i 109 -k AGT
+ -t 0.219428571 -s 36 -d -1 -p cbr -e 512 -c 2 -a 0 -i 111 -k AGT 
- -t 0.219428571 -s 36 -d -1 -p cbr -e 512 -c 2 -a 0 -i 111 -k AGT
h -t 0.219428571 -s 36 -d -1 -p cbr -e 512 -c 2 -a 0 -i 111 -k AGT
+ -t 0.228571429 -s 36 -d -1 -p cbr -e 512 -c 2 -a 0 -i 113 -k AGT 
- -t 0.228571429 -s 36 -d -1 -p cbr -e 512 -c 2 -a 0 -i 113 -k AGT
h -t 0.228571429 -s 36 -d -1 -p cbr -e 512 -c 2 -a 0 -i 113 -k AGT
+ -t 0.237714286 -s 36 -d -1 -p cbr -e 512 -c 2 -a 0 -i 141 -k AGT 
- -t 0.237714286 -s 36 -d -1 -p cbr -e 512 -c 2 -a 0 -i 141 -k AGT
h -t 0.237714286 -s 36 -d -1 -p cbr -e 512 -c 2 -a 0 -i 141 -k AGT
+ -t 0.246857143 -s 36 -d -1 -p cbr -e 512 -c 2 -a 0 -i 143 -k AGT 
- -t 0.246857143 -s 36 -d -1 -p cbr -e 512 -c 2 -a 0 -i 143 -k AGT
h -t 0.246857143 -s 36 -d -1 -p cbr -e 512 -c 2 -a 0 -i 143 -k AGT
+ -t 0.256000000 -s 36 -d -1 -p cbr -e 512 -c 2 -a 0 -i 145 -k AGT 
- -t 0.256000000 -s 36 -d -1 -p cbr -e 512 -c 2 -a 0 -i 145 -k AGT
h -t 0.256000000 -s 36 -d -1 -p cbr -e 512 -c 2 -a 0 -i 145 -k AGT
+ -t 0.265142857 -s 36 -d -1 -p cbr -e 512 -c 2 -a 0 -i 147 -k AGT 
- -t 0.265142857 -s 36 -d -1 -p cbr -e 512 -c 2 -a 0 -i 147 -k AGT
h -t 0.265142857 -s 36 -d -1 -p cbr -e 512 -c 2 -a 0 -i 147 -k AGT
+ -t 0.274285714 -s 36 -d -1 -p cbr -e 512 -c 2 -a 0 -i 149 -k AGT 
- -t 0.274285714 -s 36 -d -1 -p cbr -e 512 -c 2 -a 0 -i 149 -k AGT
h -t 0.274285714 -s 36 -d -1 -p cbr -e 512 -c 2 -a 0 -i 149 -k AGT
+ -t 0.283428571 -s 36 -d -1 -p cbr -e 512 -c 2 -a 0 -i 182 -k AGT 
- -t 0.283428571 -s 36 -d -1 -p cbr -e 512 -c 2 -a 0 -i 182 -k AGT
h -t 0.283428571 -s 36 -d -1 -p cbr -e 512 -c 2 -a 0 -i 182 -k AGT
+ -t 0.292571429 -s 36 -d -1 -p cbr -e 512 -c 2 -a 0 -i 184 -k AGT 
- -t 0.292571429 -s 36 -d -1 -p cbr -e 512 -c 2 -a 0 -i 184 -k AGT
h -t 0.292571429 -s 36 -d -1 -p cbr -e 512 -c 2 -a 0 -i 184 -k AGT
+ -t 0.301714286 -s 36 -d -1 -p cbr -e 512 -c 2 -a 0 -i 186 -k AGT 
- -t 0.301714286 -s 36 -d -1 -p cbr -e 512 -c 2 -a 0 -i 186 -k AGT
h -t 0.301714286 -s 36 -d -1 -p cbr -e 512 -c 2 -a 0 -i 186 -k AGT
+ -t 0.310857143 -s 36 -d -1 -p cbr -e 512 -c 2 -a 0 -i 188 -k AGT 
- -t 0.310857143 -s 36 -d -1 -p cbr -e 512 -c 2 -a 0 -i 188 -k AGT
h -t 0.310857143 -s 36 -d -1 -p cbr -e 512 -c 2 -a 0 -i 188 -k AGT
+ -t 0.320000000 -s 36 -d -1 -p cbr -e 512 -c 2 -a 0 -i 190 -k AGT 
- -t 0.320000000 -s 36 -d -1 -p cbr -e 512 -c 2 -a 0 -i 190 -k AGT
h -t 0.320000000 -s 36 -d -1 -p cbr -e 512 -c 2 -a 0 -i 190 -k AGT
+ -t 0.329142857 -s 36 -d -1 -p cbr -e 512 -c 2 -a 0 -i 228 -k AGT 
- -t 0.329142857 -s 36 -d -1 -p cbr -e 512 -c 2 -a 0 -i 228 -k AGT
h -t 0.329142857 -s 36 -d -1 -p cbr -e 512 -c 2 -a 0 -i 228 -k AGT
+ -t 0.338285714 -s 36 -d -1 -p cbr -e 512 -c 2 -a 0 -i 230 -k AGT 
- -t 0.338285714 -s 36 -d -1 -p cbr -e 512 -c 2 -a 0 -i 230 -k AGT
h -t 0.338285714 -s 36 -d -1 -p cbr -e 512 -c 2 -a 0 -i 230 -k AGT
+ -t 0.347428571 -s 36 -d -1 -p cbr -e 512 -c 2 -a 0 -i 232 -k AGT 
- -t 0.347428571 -s 36 -d -1 -p cbr -e 512 -c 2 -a 0 -i 232 -k AGT
h -t 0.347428571 -s 36 -d -1 -p cbr -e 512 -c 2 -a 0 -i 232 -k AGT
+ -t 0.356571429 -s 36 -d -1 -p cbr -e 512 -c 2 -a 0 -i 234 -k AGT 
- -t 0.356571429 -s 36 -d -1 -p cbr -e 512 -c 2 -a 0 -i 234 -k AGT
h -t 0.356571429 -s 36 -d -1 -p cbr -e 512 -c 2 -a 0 -i 234 -k AGT
+ -t 0.365714286 -s 36 -d -1 -p cbr -e 512 -c 2 -a 0 -i 276 -k AGT 
- -t 0.365714286 -s 36 -d -1 -p cbr -e 512 -c 2 -a 0 -i 276 -k AGT
h -t 0.365714286 -s 36 -d -1 -p cbr -e 512 -c 2 -a 0 -i 276 -k AGT
+ -t 0.374857143 -s 36 -d -1 -p cbr -e 512 -c 2 -a 0 -i 278 -k AGT 
- -t 0.374857143 -s 36 -d -1 -p cbr -e 512 -c 2 -a 0 -i 278 -k AGT
h -t 0.374857143 -s 36 -d -1 -p cbr -e 512 -c 2 -a 0 -i 278 -k AGT
+ -t 0.384000000 -s 36 -d -1 -p cbr -e 512 -c 2 -a 0 -i 280 -k AGT 
- -t 0.384000000 -s 36 -d -1 -p cbr -e 512 -c 2 -a 0 -i 280 -k AGT
h -t 0.384000000 -s 36 -d -1 -p cbr -e 512 -c 2 -a 0 -i 280 -k AGT
+ -t 0.393142857 -s 36 -d -1 -p cbr -e 512 -c 2 -a 0 -i 282 -k AGT 
- -t 0.393142857 -s 36 -d -1 -p cbr -e 512 -c 2 -a 0 -i 282 -k AGT
h -t 0.393142857 -s 36 -d -1 -p cbr -e 512 -c 2 -a 0 -i 282 -k AGT
+ -t 0.402285714 -s 36 -d -1 -p cbr -e 512 -c 2 -a 0 -i 284 -k AGT 
- -t 0.402285714 -s 36 -d -1 -p cbr -e 512 -c 2 -a 0 -i 284 -k AGT
h -t 0.402285714 -s 36 -d -1 -p cbr -e 512 -c 2 -a 0 -i 284 -k AGT
+ -t 0.411428571 -s 36 -d -1 -p cbr -e 512 -c 2 -a 0 -i 286 -k AGT 
- -t 0.411428571 -s 36 -d -1 -p cbr -e 512 -c 2 -a 0 -i 286 -k AGT
h -t 0.411428571 -s 36 -d -1 -p cbr -e 512 -c 2 -a 0 -i 286 -k AGT
+ -t 0.420571429 -s 36 -d -1 -p cbr -e 512 -c 2 -a 0 -i 334 -k AGT 
- -t 0.420571429 -s 36 -d -1 -p cbr -e 512 -c 2 -a 0 -i 334 -k AGT
h -t 0.420571429 -s 36 -d -1 -p cbr -e 512 -c 2 -a 0 -i 334 -k AGT
+ -t 0.429714286 -s 36 -d -1 -p cbr -e 512 -c 2 -a 0 -i 336 -k AGT 
- -t 0.429714286 -s 36 -d -1 -p cbr -e 512 -c 2 -a 0 -i 336 -k AGT
h -t 0.429714286 -s 36 -d -1 -p cbr -e 512 -c 2 -a 0 -i 336 -k AGT
+ -t 0.438857143 -s 36 -d -1 -p cbr -e 512 -c 2 -a 0 -i 338 -k AGT 
- -t 0.438857143 -s 36 -d -1 -p cbr -e 512 -c 2 -a 0 -i 338 -k AGT
h -t 0.438857143 -s 36 -d -1 -p cbr -e 512 -c 2 -a 0 -i 338 -k AGT
+ -t 0.448000000 -s 36 -d -1 -p cbr -e 512 -c 2 -a 0 -i 340 -k AGT 
- -t 0.448000000 -s 36 -d -1 -p cbr -e 512 -c 2 -a 0 -i 340 -k AGT
h -t 0.448000000 -s 36 -d -1 -p cbr -e 512 -c 2 -a 0 -i 340 -k AGT
+ -t 0.457142857 -s 36 -d -1 -p cbr -e 512 -c 2 -a 0 -i 342 -k AGT 
- -t 0.457142857 -s 36 -d -1 -p cbr -e 512 -c 2 -a 0 -i 342 -k AGT
h -t 0.457142857 -s 36 -d -1 -p cbr -e 512 -c 2 -a 0 -i 342 -k AGT
+ -t 0.466285714 -s 36 -d -1 -p cbr -e 512 -c 2 -a 0 -i 395 -k AGT 
- -t 0.466285714 -s 36 -d -1 -p cbr -e 512 -c 2 -a 0 -i 395 -k AGT
h -t 0.466285714 -s 36 -d -1 -p cbr -e 512 -c 2 -a 0 -i 395 -k AGT
+ -t 0.475428571 -s 36 -d -1 -p cbr -e 512 -c 2 -a 0 -i 397 -k AGT 
- -t 0.475428571 -s 36 -d -1 -p cbr -e 512 -c 2 -a 0 -i 397 -k AGT
h -t 0.475428571 -s 36 -d -1 -p cbr -e 512 -c 2 -a 0 -i 397 -k AGT
+ -t 0.484571429 -s 36 -d -1 -p cbr -e 512 -c 2 -a 0 -i 399 -k AGT 
- -t 0.484571429 -s 36 -d -1 -p cbr -e 512 -c 2 -a 0 -i 399 -k AGT
h -t 0.484571429 -s 36 -d -1 -p cbr -e 512 -c 2 -a 0 -i 399 -k AGT
+ -t 0.493714286 -s 36 -d -1 -p cbr -e 512 -c 2 -a 0 -i 401 -k AGT 
- -t 0.493714286 -s 36 -d -1 -p cbr -e 512 -c 2 -a 0 -i 401 -k AGT
h -t 0.493714286 -s 36 -d -1 -p cbr -e 512 -c 2 -a 0 -i 401 -k AGT
+ -t 0.502857143 -s 36 -d -1 -p cbr -e 512 -c 2 -a 0 -i 458 -k AGT 
- -t 0.502857143 -s 36 -d -1 -p cbr -e 512 -c 2 -a 0 -i 458 -k AGT
h -t 0.502857143 -s 36 -d -1 -p cbr -e 512 -c 2 -a 0 -i 458 -k AGT
+ -t 0.512000000 -s 36 -d -1 -p cbr -e 512 -c 2 -a 0 -i 460 -k AGT 
- -t 0.512000000 -s 36 -d -1 -p cbr -e 512 -c 2 -a 0 -i 460 -k AGT
h -t 0.512000000 -s 36 -d -1 -p cbr -e 512 -c 2 -a 0 -i 460 -k AGT
+ -t 0.521142857 -s 36 -d -1 -p cbr -e 512 -c 2 -a 0 -i 462 -k AGT 
- -t 0.521142857 -s 36 -d -1 -p cbr -e 512 -c 2 -a 0 -i 462 -k AGT
h -t 0.521142857 -s 36 -d -1 -p cbr -e 512 -c 2 -a 0 -i 462 -k AGT
+ -t 0.530285714 -s 36 -d -1 -p cbr -e 512 -c 2 -a 0 -i 464 -k AGT 
- -t 0.530285714 -s 36 -d -1 -p cbr -e 512 -c 2 -a 0 -i 464 -k AGT
h -t 0.530285714 -s 36 -d -1 -p cbr -e 512 -c 2 -a 0 -i 464 -k AGT
+ -t 0.539428571 -s 36 -d -1 -p cbr -e 512 -c 2 -a 0 -i 466 -k AGT 
- -t 0.539428571 -s 36 -d -1 -p cbr -e 512 -c 2 -a 0 -i 466 -k AGT
h -t 0.539428571 -s 36 -d -1 -p cbr -e 512 -c 2 -a 0 -i 466 -k AGT
+ -t 0.548571429 -s 36 -d -1 -p cbr -e 512 -c 2 -a 0 -i 468 -k AGT 
- -t 0.548571429 -s 36 -d -1 -p cbr -e 512 -c 2 -a 0 -i 468 -k AGT
h -t 0.548571429 -s 36 -d -1 -p cbr -e 512 -c 2 -a 0 -i 468 -k AGT
+ -t 0.557714286 -s 36 -d -1 -p cbr -e 512 -c 2 -a 0 -i 531 -k AGT 
- -t 0.557714286 -s 36 -d -1 -p cbr -e 512 -c 2 -a 0 -i 531 -k AGT
h -t 0.557714286 -s 36 -d -1 -p cbr -e 512 -c 2 -a 0 -i 531 -k AGT
+ -t 0.566857143 -s 36 -d -1 -p cbr -e 512 -c 2 -a 0 -i 533 -k AGT 
- -t 0.566857143 -s 36 -d -1 -p cbr -e 512 -c 2 -a 0 -i 533 -k AGT
h -t 0.566857143 -s 36 -d -1 -p cbr -e 512 -c 2 -a 0 -i 533 -k AGT
+ -t 0.576000000 -s 36 -d -1 -p cbr -e 512 -c 2 -a 0 -i 535 -k AGT 
- -t 0.576000000 -s 36 -d -1 -p cbr -e 512 -c 2 -a 0 -i 535 -k AGT
h -t 0.576000000 -s 36 -d -1 -p cbr -e 512 -c 2 -a 0 -i 535 -k AGT
+ -t 0.585142857 -s 36 -d -1 -p cbr -e 512 -c 2 -a 0 -i 537 -k AGT 
- -t 0.585142857 -s 36 -d -1 -p cbr -e 512 -c 2 -a 0 -i 537 -k AGT
h -t 0.585142857 -s 36 -d -1 -p cbr -e 512 -c 2 -a 0 -i 537 -k AGT
d -t 0.585142857 -s 36 -d -1 -p cbr -e 532 -c 2 -a 0 -i 0 -k RTR
+ -t 0.594285714 -s 36 -d -1 -p cbr -e 512 -c 2 -a 0 -i 539 -k AGT 
- -t 0.594285714 -s 36 -d -1 -p cbr -e 512 -c 2 -a 0 -i 539 -k AGT
h -t 0.594285714 -s 36 -d -1 -p cbr -e 512 -c 2 -a 0 -i 539 -k AGT
d -t 0.594285714 -s 36 -d -1 -p cbr -e 532 -c 2 -a 0 -i 2 -k RTR
+ -t 0.603428571 -s 36 -d -1 -p cbr -e 512 -c 2 -a 0 -i 605 -k AGT 
- -t 0.603428571 -s 36 -d -1 -p cbr -e 512 -c 2 -a 0 -i 605 -k AGT
h -t 0.603428571 -s 36 -d -1 -p cbr -e 512 -c 2 -a 0 -i 605 -k AGT
d -t 0.603428571 -s 36 -d -1 -p cbr -e 532 -c 2 -a 0 -i 4 -k RTR
+ -t 0.612571429 -s 36 -d -1 -p cbr -e 512 -c 2 -a 0 -i 607 -k AGT 
- -t 0.612571429 -s 36 -d -1 -p cbr -e 512 -c 2 -a 0 -i 607 -k AGT
h -t 0.612571429 -s 36 -d -1 -p cbr -e 512 -c 2 -a 0 -i 607 -k AGT
d -t 0.612571429 -s 36 -d -1 -p cbr -e 532 -c 2 -a 0 -i 6 -k RTR
+ -t 0.621714286 -s 36 -d -1 -p cbr -e 512 -c 2 -a 0 -i 609 -k AGT 
- -t 0.621714286 -s 36 -d -1 -p cbr -e 512 -c 2 -a 0 -i 609 -k AGT
h -t 0.621714286 -s 36 -d -1 -p cbr -e 512 -c 2 -a 0 -i 609 -k AGT
d -t 0.621714286 -s 36 -d -1 -p cbr -e 532 -c 2 -a 0 -i 12 -k RTR
+ -t 0.630857143 -s 36 -d -1 -p cbr -e 512 -c 2 -a 0 -i 611 -k AGT 
- -t 0.630857143 -s 36 -d -1 -p cbr -e 512 -c 2 -a 0 -i 611 -k AGT
h -t 0.630857143 -s 36 -d -1 -p cbr -e 512 -c 2 -a 0 -i 611 -k AGT
d -t 0.630857143 -s 36 -d -1 -p cbr -e 532 -c 2 -a 0 -i 14 -k RTR
+ -t 0.640000000 -s 36 -d -1 -p cbr -e 512 -c 2 -a 0 -i 613 -k AGT 
- -t 0.640000000 -s 36 -d -1 -p cbr -e 512 -c 2 -a 0 -i 613 -k AGT
h -t 0.640000000 -s 36 -d -1 -p cbr -e 512 -c 2 -a 0 -i 613 -k AGT
d -t 0.640000000 -s 36 -d -1 -p cbr -e 532 -c 2 -a 0 -i 16 -k RTR
+ -t 0.649142857 -s 36 -d -1 -p cbr -e 512 -c 2 -a 0 -i 679 -k AGT 
- -t 0.649142857 -s 36 -d -1 -p cbr -e 512 -c 2 -a 0 -i 679 -k AGT
h -t 0.649142857 -s 36 -d -1 -p cbr -e 512 -c 2 -a 0 -i 679 -k AGT
d -t 0.649142857 -s 36 -d -1 -p cbr -e 532 -c 2 -a 0 -i 18 -k RTR
+ -t 0.658285714 -s 36 -d -1 -p cbr -e 512 -c 2 -a 0 -i 681 -k AGT 
- -t 0.658285714 -s 36 -d -1 -p cbr -e 512 -c 2 -a 0 -i 681 -k AGT
h -t 0.658285714 -s 36 -d -1 -p cbr -e 512 -c 2 -a 0 -i 681 -k AGT
d -t 0.658285714 -s 36 -d -1 -p cbr -e 532 -c 2 -a 0 -i 20 -k RTR
+ -t 0.667428571 -s 36 -d -1 -p cbr -e 512 -c 2 -a 0 -i 683 -k AGT 
- -t 0.667428571 -s 36 -d -1 -p cbr -e 512 -c 2 -a 0 -i 683 -k AGT
h -t 0.667428571 -s 36 -d -1 -p cbr -e 512 -c 2 -a 0 -i 683 -k AGT
d -t 0.667428571 -s 36 -d -1 -p cbr -e 532 -c 2 -a 0 -i 31 -k RTR
+ -t 0.676571429 -s 36 -d -1 -p cbr -e 512 -c 2 -a 0 -i 685 -k AGT 
- -t 0.676571429 -s 36 -d -1 -p cbr -e 512 -c 2 -a 0 -i 685 -k AGT
h -t 0.676571429 -s 36 -d -1 -p cbr -e 512 -c 2 -a 0 -i 685 -k AGT
d -t 0.676571429 -s 36 -d -1 -p cbr -e 532 -c 2 -a 0 -i 33 -k RTR
+ -t 0.685714286 -s 36 -d -1 -p cbr -e 512 -c 2 -a 0 -i 687 -k AGT 
- -t 0.685714286 -s 36 -d -1 -p cbr -e 512 -c 2 -a 0 -i 687 -k AGT
h -t 0.685714286 -s 36 -d -1 -p cbr -e 512 -c 2 -a 0 -i 687 -k AGT
d -t 0.685714286 -s 36 -d -1 -p cbr -e 532 -c 2 -a 0 -i 35 -k RTR
+ -t 0.694857143 -s 36 -d -1 -p cbr -e 512 -c 2 -a 0 -i 753 -k AGT 
- -t 0.694857143 -s 36 -d -1 -p cbr -e 512 -c 2 -a 0 -i 753 -k AGT
h -t 0.694857143 -s 36 -d -1 -p cbr -e 512 -c 2 -a 0 -i 753 -k AGT
d -t 0.694857143 -s 36 -d -1 -p cbr -e 532 -c 2 -a 0 -i 49 -k RTR
+ -t 0.704000000 -s 36 -d -1 -p cbr -e 512 -c 2 -a 0 -i 755 -k AGT 
- -t 0.704000000 -s 36 -d -1 -p cbr -e 512 -c 2 -a 0 -i 755 -k AGT
h -t 0.704000000 -s 36 -d -1 -p cbr -e 512 -c 2 -a 0 -i 755 -k AGT
d -t 0.704000000 -s 36 -d -1 -p cbr -e 532 -c 2 -a 0 -i 51 -k RTR
+ -t 0.713142857 -s 36 -d -1 -p cbr -e 512 -c 2 -a 0 -i 757 -k AGT 
- -t 0.713142857 -s 36 -d -1 -p cbr -e 512 -c 2 -a 0 -i 757 -k AGT
h -t 0.713142857 -s 36 -d -1 -p cbr -e 512 -c 2 -a 0 -i 757 -k AGT
d -t 0.713142857 -s 36 -d -1 -p cbr -e 532 -c 2 -a 0 -i 53 -k RTR
+ -t 0.722285714 -s 36 -d -1 -p cbr -e 512 -c 2 -a 0 -i 759 -k AGT 
- -t 0.722285714 -s 36 -d -1 -p cbr -e 512 -c 2 -a 0 -i 759 -k AGT
h -t 0.722285714 -s 36 -d -1 -p cbr -e 512 -c 2 -a 0 -i 759 -k AGT
d -t 0.722285714 -s 36 -d -1 -p cbr -e 532 -c 2 -a 0 -i 55 -k RTR
+ -t 0.731428571 -s 36 -d -1 -p cbr -e 512 -c 2 -a 0 -i 761 -k AGT 
- -t 0.731428571 -s 36 -d -1 -p cbr -e 512 -c 2 -a 0 -i 761 -k AGT
h -t 0.731428571 -s 36 -d -1 -p cbr -e 512 -c 2 -a 0 -i 761 -k AGT
d -t 0.731428571 -s 36 -d -1 -p cbr -e 532 -c 2 -a 0 -i 57 -k RTR
+ -t 0.740571429 -s 36 -d -1 -p cbr -e 512 -c 2 -a 0 -i 827 -k AGT 
- -t 0.740571429 -s 36 -d -1 -p cbr -e 512 -c 2 -a 0 -i 827 -k AGT
h -t 0.740571429 -s 36 -d -1 -p cbr -e 512 -c 2 -a 0 -i 827 -k AGT
d -t 0.740571429 -s 36 -d -1 -p cbr -e 532 -c 2 -a 0 -i 76 -k RTR
+ -t 0.749714286 -s 36 -d -1 -p cbr -e 512 -c 2 -a 0 -i 829 -k AGT 
- -t 0.749714286 -s 36 -d -1 -p cbr -e 512 -c 2 -a 0 -i 829 -k AGT
h -t 0.749714286 -s 36 -d -1 -p cbr -e 512 -c 2 -a 0 -i 829 -k AGT
d -t 0.749714286 -s 36 -d -1 -p cbr -e 532 -c 2 -a 0 -i 78 -k RTR
+ -t 0.758857143 -s 36 -d -1 -p cbr -e 512 -c 2 -a 0 -i 831 -k AGT 
- -t 0.758857143 -s 36 -d -1 -p cbr -e 512 -c 2 -a 0 -i 831 -k AGT
h -t 0.758857143 -s 36 -d -1 -p cbr -e 512 -c 2 -a 0 -i 831 -k AGT
d -t 0.758857143 -s 36 -d -1 -p cbr -e 532 -c 2 -a 0 -i 80 -k RTR
+ -t 0.768000000 -s 36 -d -1 -p cbr -e 512 -c 2 -a 0 -i 833 -k AGT 
- -t 0.768000000 -s 36 -d -1 -p cbr -e 512 -c 2 -a 0 -i 833 -k AGT
h -t 0.768000000 -s 36 -d -1 -p cbr -e 512 -c 2 -a 0 -i 833 -k AGT
d -t 0.768000000 -s 36 -d -1 -p cbr -e 532 -c 2 -a 0 -i 82 -k RTR
+ -t 0.777142857 -s 36 -d -1 -p cbr -e 512 -c 2 -a 0 -i 835 -k AGT 
- -t 0.777142857 -s 36 -d -1 -p cbr -e 512 -c 2 -a 0 -i 835 -k AGT
h -t 0.777142857 -s 36 -d -1 -p cbr -e 512 -c 2 -a 0 -i 835 -k AGT
d -t 0.777142857 -s 36 -d -1 -p cbr -e 532 -c 2 -a 0 -i 105 -k RTR
+ -t 0.786285714 -s 36 -d -1 -p cbr -e 512 -c 2 -a 0 -i 901 -k AGT 
- -t 0.786285714 -s 36 -d -1 -p cbr -e 512 -c 2 -a 0 -i 901 -k AGT
h -t 0.786285714 -s 36 -d -1 -p cbr -e 512 -c 2 -a 0 -i 901 -k AGT
d -t 0.786285714 -s 36 -d -1 -p cbr -e 532 -c 2 -a 0 -i 107 -k RTR
+ -t 0.795428571 -s 36 -d -1 -p cbr -e 512 -c 2 -a 0 -i 903 -k AGT 
- -t 0.795428571 -s 36 -d -1 -p cbr -e 512 -c 2 -a 0 -i 903 -k AGT
h -t 0.795428571 -s 36 -d -1 -p cbr -e 512 -c 2 -a 0 -i 903 -k AGT
d -t 0.795428571 -s 36 -d -1 -p cbr -e 532 -c 2 -a 0 -i 109 -k RTR
+ -t 0.804571429 -s 36 -d -1 -p cbr -e 512 -c 2 -a 0 -i 905 -k AGT 
- -t 0.804571429 -s 36 -d -1 -p cbr -e 512 -c 2 -a 0 -i 905 -k AGT
h -t 0.804571429 -s 36 -d -1 -p cbr -e 512 -c 2 -a 0 -i 905 -k AGT
d -t 0.804571429 -s 36 -d -1 -p cbr -e 532 -c 2 -a 0 -i 111 -k RTR
+ -t 0.813714286 -s 36 -d -1 -p cbr -e 512 -c 2 -a 0 -i 907 -k AGT 
- -t 0.813714286 -s 36 -d -1 -p cbr -e 512 -c 2 -a 0 -i 907 -k AGT
h -t 0.813714286 -s 36 -d -1 -p cbr -e 512 -c 2 -a 0 -i 907 -k AGT
d -t 0.813714286 -s 36 -d -1 -p cbr -e 532 -c 2 -a 0 -i 113 -k RTR
+ -t 0.822857143 -s 36 -d -1 -p cbr -e 512 -c 2 -a 0 -i 973 -k AGT 
- -t 0.822857143 -s 36 -d -1 -p cbr -e 512 -c 2 -a 0 -i 973 -k AGT
h -t 0.822857143 -s 36 -d -1 -p cbr -e 512 -c 2 -a 0 -i 973 -k AGT
d -t 0.822857143 -s 36 -d -1 -p cbr -e 532 -c 2 -a 0 -i 141 -k RTR
+ -t 0.832000000 -s 36 -d -1 -p cbr -e 512 -c 2 -a 0 -i 975 -k AGT 
- -t 0.832000000 -s 36 -d -1 -p cbr -e 512 -c 2 -a 0 -i 975 -k AGT
h -t 0.832000000 -s 36 -d -1 -p cbr -e 512 -c 2 -a 0 -i 975 -k AGT
d -t 0.832000000 -s 36 -d -1 -p cbr -e 532 -c 2 -a 0 -i 143 -k RTR
+ -t 0.841142857 -s 36 -d -1 -p cbr -e 512 -c 2 -a 0 -i 977 -k AGT 
- -t 0.841142857 -s 36 -d -1 -p cbr -e 512 -c 2 -a 0 -i 977 -k AGT
h -t 0.841142857 -s 36 -d -1 -p cbr -e 512 -c 2 -a 0 -i 977 -k AGT
d -t 0.841142857 -s 36 -d -1 -p cbr -e 532 -c 2 -a 0 -i 145 -k RTR
+ -t 0.850285714 -s 36 -d -1 -p cbr -e 512 -c 2 -a 0 -i 1043 -k AGT 
- -t 0.850285714 -s 36 -d -1 -p cbr -e 512 -c 2 -a 0 -i 1043 -k AGT
h -t 0.850285714 -s 36 -d -1 -p cbr -e 512 -c 2 -a 0 -i 1043 -k AGT
d -t 0.850285714 -s 36 -d -1 -p cbr -e 532 -c 2 -a 0 -i 147 -k RTR
+ -t 0.859428571 -s 36 -d -1 -p cbr -e 512 -c 2 -a 0 -i 1045 -k AGT 
- -t 0.859428571 -s 36 -d -1 -p cbr -e 512 -c 2 -a 0 -i 1045 -k AGT
h -t 0.859428571 -s 36 -d -1 -p cbr -e 512 -c 2 -a 0 -i 1045 -k AGT
d -t 0.859428571 -s 36 -d -1 -p cbr -e 532 -c 2 -a 0 -i 149 -k RTR
+ -t 0.868571429 -s 36 -d -1 -p cbr -e 512 -c 2 -a 0 -i 1047 -k AGT 
- -t 0.868571429 -s 36 -d -1 -p cbr -e 512 -c 2 -a 0 -i 1047 -k AGT
h -t 0.868571429 -s 36 -d -1 -p cbr -e 512 -c 2 -a 0 -i 1047 -k AGT
d -t 0.868571429 -s 36 -d -1 -p cbr -e 532 -c 2 -a 0 -i 182 -k RTR
+ -t 0.877714286 -s 36 -d -1 -p cbr -e 512 -c 2 -a 0 -i 1049 -k AGT 
- -t 0.877714286 -s 36 -d -1 -p cbr -e 512 -c 2 -a 0 -i 1049 -k AGT
h -t 0.877714286 -s 36 -d -1 -p cbr -e 512 -c 2 -a 0 -i 1049 -k AGT
d -t 0.877714286 -s 36 -d -1 -p cbr -e 532 -c 2 -a 0 -i 184 -k RTR
+ -t 0.886857143 -s 36 -d -1 -p cbr -e 512 -c 2 -a 0 -i 1051 -k AGT 
- -t 0.886857143 -s 36 -d -1 -p cbr -e 512 -c 2 -a 0 -i 1051 -k AGT
h -t 0.886857143 -s 36 -d -1 -p cbr -e 512 -c 2 -a 0 -i 1051 -k AGT
d -t 0.886857143 -s 36 -d -1 -p cbr -e 532 -c 2 -a 0 -i 186 -k RTR
+ -t 0.896000000 -s 36 -d -1 -p cbr -e 512 -c 2 -a 0 -i 1117 -k AGT 
- -t 0.896000000 -s 36 -d -1 -p cbr -e 512 -c 2 -a 0 -i 1117 -k AGT
h -t 0.896000000 -s 36 -d -1 -p cbr -e 512 -c 2 -a 0 -i 1117 -k AGT
d -t 0.896000000 -s 36 -d -1 -p cbr -e 532 -c 2 -a 0 -i 188 -k RTR
+ -t 0.905142857 -s 36 -d -1 -p cbr -e 512 -c 2 -a 0 -i 1119 -k AGT 
- -t 0.905142857 -s 36 -d -1 -p cbr -e 512 -c 2 -a 0 -i 1119 -k AGT
h -t 0.905142857 -s 36 -d -1 -p cbr -e 512 -c 2 -a 0 -i 1119 -k AGT
d -t 0.905142857 -s 36 -d -1 -p cbr -e 532 -c 2 -a 0 -i 190 -k RTR
+ -t 0.914285714 -s 36 -d -1 -p cbr -e 512 -c 2 -a 0 -i 1121 -k AGT 
- -t 0.914285714 -s 36 -d -1 -p cbr -e 512 -c 2 -a 0 -i 1121 -k AGT
h -t 0.914285714 -s 36 -d -1 -p cbr -e 512 -c 2 -a 0 -i 1121 -k AGT
d -t 0.914285714 -s 36 -d -1 -p cbr -e 532 -c 2 -a 0 -i 228 -k RTR
+ -t 0.923428571 -s 36 -d -1 -p cbr -e 512 -c 2 -a 0 -i 1123 -k AGT 
- -t 0.923428571 -s 36 -d -1 -p cbr -e 512 -c 2 -a 0 -i 1123 -k AGT
h -t 0.923428571 -s 36 -d -1 -p cbr -e 512 -c 2 -a 0 -i 1123 -k AGT
d -t 0.923428571 -s 36 -d -1 -p cbr -e 532 -c 2 -a 0 -i 230 -k RTR
+ -t 0.932571429 -s 36 -d -1 -p cbr -e 512 -c 2 -a 0 -i 1189 -k AGT 
- -t 0.932571429 -s 36 -d -1 -p cbr -e 512 -c 2 -a 0 -i 1189 -k AGT
h -t 0.932571429 -s 36 -d -1 -p cbr -e 512 -c 2 -a 0 -i 1189 -k AGT
d -t 0.932571429 -s 36 -d -1 -p cbr -e 532 -c 2 -a 0 -i 232 -k RTR
+ -t 0.941714286 -s 36 -d -1 -p cbr -e 512 -c 2 -a 0 -i 1191 -k AGT 
- -t 0.941714286 -s 36 -d -1 -p cbr -e 512 -c 2 -a 0 -i 1191 -k AGT
h -t 0.941714286 -s 36 -d -1 -p cbr -e 512 -c 2 -a 0 -i 1191 -k AGT
d -t 0.941714286 -s 36 -d -1 -p cbr -e 532 -c 2 -a 0 -i 234 -k RTR
+ -t 0.950857143 -s 36 -d -1 -p cbr -e 512 -c 2 -a 0 -i 1193 -k AGT 
- -t 0.950857143 -s 36 -d -1 -p cbr -e 512 -c 2 -a 0 -i 1193 -k AGT
h -t 0.950857143 -s 36 -d -1 -p cbr -e 512 -c 2 -a 0 -i 1193 -k AGT
d -t 0.950857143 -s 36 -d -1 -p cbr -e 532 -c 2 -a 0 -i 276 -k RTR
+ -t 0.960000000 -s 36 -d -1 -p cbr -e 512 -c 2 -a 0 -i 1195 -k AGT 
- -t 0.960000000 -s 36 -d -1 -p cbr -e 512 -c 2 -a 0 -i 1195 -k AGT
h -t 0.960000000 -s 36 -d -1 -p cbr -e 512 -c 2 -a 0 -i 1195 -k AGT
d -t 0.960000000 -s 36 -d -1 -p cbr -e 532 -c 2 -a 0 -i 278 -k RTR
+ -t 0.969142857 -s 36 -d -1 -p cbr -e 512 -c 2 -a 0 -i 1197 -k AGT 
- -t 0.969142857 -s 36 -d -1 -p cbr -e 512 -c 2 -a 0 -i 1197 -k AGT
h -t 0.969142857 -s 36 -d -1 -p cbr -e 512 -c 2 -a 0 -i 1197 -k AGT
d -t 0.969142857 -s 36 -d -1 -p cbr -e 532 -c 2 -a 0 -i 280 -k RTR
+ -t 0.978285714 -s 36 -d -1 -p cbr -e 512 -c 2 -a 0 -i 1263 -k AGT 
- -t 0.978285714 -s 36 -d -1 -p cbr -e 512 -c 2 -a 0 -i 1263 -k AGT
h -t 0.978285714 -s 36 -d -1 -p cbr -e 512 -c 2 -a 0 -i 1263 -k AGT
d -t 0.978285714 -s 36 -d -1 -p cbr -e 532 -c 2 -a 0 -i 282 -k RTR
+ -t 0.987428571 -s 36 -d -1 -p cbr -e 512 -c 2 -a 0 -i 1265 -k AGT 
- -t 0.987428571 -s 36 -d -1 -p cbr -e 512 -c 2 -a 0 -i 1265 -k AGT
h -t 0.987428571 -s 36 -d -1 -p cbr -e 512 -c 2 -a 0 -i 1265 -k AGT
d -t 0.987428571 -s 36 -d -1 -p cbr -e 532 -c 2 -a 0 -i 284 -k RTR
+ -t 0.996571429 -s 36 -d -1 -p cbr -e 512 -c 2 -a 0 -i 1267 -k AGT 
- -t 0.996571429 -s 36 -d -1 -p cbr -e 512 -c 2 -a 0 -i 1267 -k AGT
h -t 0.996571429 -s 36 -d -1 -p cbr -e 512 -c 2 -a 0 -i 1267 -k AGT
d -t 0.996571429 -s 36 -d -1 -p cbr -e 532 -c 2 -a 0 -i 286 -k RTR
+ -t 1.005714286 -s 36 -d -1 -p cbr -e 512 -c 2 -a 0 -i 1269 -k AGT 
- -t 1.005714286 -s 36 -d -1 -p cbr -e 512 -c 2 -a 0 -i 1269 -k AGT
h -t 1.005714286 -s 36 -d -1 -p cbr -e 512 -c 2 -a 0 -i 1269 -k AGT
d -t 1.005714286 -s 36 -d -1 -p cbr -e 532 -c 2 -a 0 -i 334 -k RTR
+ -t 1.014857143 -s 36 -d -1 -p cbr -e 512 -c 2 -a 0 -i 1271 -k AGT 
- -t 1.014857143 -s 36 -d -1 -p cbr -e 512 -c 2 -a 0 -i 1271 -k AGT
h -t 1.014857143 -s 36 -d -1 -p cbr -e 512 -c 2 -a 0 -i 1271 -k AGT
d -t 1.014857143 -s 36 -d -1 -p cbr -e 532 -c 2 -a 0 -i 336 -k RTR
+ -t 1.024000000 -s 36 -d -1 -p cbr -e 512 -c 2 -a 0 -i 1337 -k AGT 
- -t 1.024000000 -s 36 -d -1 -p cbr -e 512 -c 2 -a 0 -i 1337 -k AGT
h -t 1.024000000 -s 36 -d -1 -p cbr -e 512 -c 2 -a 0 -i 1337 -k AGT
d -t 1.024000000 -s 36 -d -1 -p cbr -e 532 -c 2 -a 0 -i 338 -k RTR
+ -t 1.033142857 -s 36 -d -1 -p cbr -e 512 -c 2 -a 0 -i 1339 -k AGT 
- -t 1.033142857 -s 36 -d -1 -p cbr -e 512 -c 2 -a 0 -i 1339 -k AGT
h -t 1.033142857 -s 36 -d -1 -p cbr -e 512 -c 2 -a 0 -i 1339 -k AGT
d -t 1.033142857 -s 36 -d -1 -p cbr -e 532 -c 2 -a 0 -i 340 -k RTR
+ -t 1.042285714 -s 36 -d -1 -p cbr -e 512 -c 2 -a 0 -i 1341 -k AGT 
- -t 1.042285714 -s 36 -d -1 -p cbr -e 512 -c 2 -a 0 -i 1341 -k AGT
h -t 1.042285714 -s 36 -d -1 -p cbr -e 512 -c 2 -a 0 -i 1341 -k AGT
d -t 1.042285714 -s 36 -d -1 -p cbr -e 532 -c 2 -a 0 -i 342 -k RTR
+ -t 1.051428571 -s 36 -d -1 -p cbr -e 512 -c 2 -a 0 -i 1343 -k AGT 
- -t 1.051428571 -s 36 -d -1 -p cbr -e 512 -c 2 -a 0 -i 1343 -k AGT
h -t 1.051428571 -s 36 -d -1 -p cbr -e 512 -c 2 -a 0 -i 1343 -k AGT
d -t 1.051428571 -s 36 -d -1 -p cbr -e 532 -c 2 -a 0 -i 395 -k RTR
+ -t 1.060571429 -s 36 -d -1 -p cbr -e 512 -c 2 -a 0 -i 1345 -k AGT 
- -t 1.060571429 -s 36 -d -1 -p cbr -e 512 -c 2 -a 0 -i 1345 -k AGT
h -t 1.060571429 -s 36 -d -1 -p cbr -e 512 -c 2 -a 0 -i 1345 -k AGT
d -t 1.060571429 -s 36 -d -1 -p cbr -e 532 -c 2 -a 0 -i 397 -k RTR
+ -t 1.069714286 -s 36 -d -1 -p cbr -e 512 -c 2 -a 0 -i 1347 -k AGT 