Sconfig 0.00000 tap: on snoop: rts? on errs? on
Sconfig 0.00000 salvage: on !bd replies? on
Sconfig 0.00000 grat error: on grat reply: on
Sconfig 0.00000 $reply for props: on ring 0 search: on
Sconfig 0.00000 using MOBICACHE
s -t 0.000000000 -Hs 36 -Hd -2 -Ni 36 -Nx 2.00 -Ny 2.00 -Nz 0.00 -Ne 3.000000 -Nl AGT -Nw --- -Ma 0 -Md 0 -Ms 0 -Mt 0 -Is 36.0 -Id 2.0 -It cbr -Il 512 -If 0 -Ii 0 -Iv 32 -Pn cbr -Pi 0 -Pf 0 -Po 0 
r -t 0.000000000 -Hs 36 -Hd -2 -Ni 36 -Nx 2.00 -Ny 2.00 -Nz 0.00 -Ne 3.000000 -Nl RTR -Nw --- -Ma 0 -Md 0 -Ms 0 -Mt 0 -Is 36.0 -Id 2.0 -It cbr -Il 512 -If 0 -Ii 0 -Iv 32 -Pn cbr -Pi 0 -Pf 0 -Po 0 
s -t 0.004042075 -Hs 36 -Hd -1 -Ni 36 -Nx 2.00 -Ny 2.00 -Nz 0.00 -Ne 3.000000 -Nl RTR -Nw --- -Ma 0 -Md 0 -Ms 0 -Mt 0 -Is 36.255 -Id 2.255 -It DSR -Il 32 -If 0 -Ii 1 -Iv 32 -P dsr -Ph 1 -Pq 1 -Ps 1 -Pp 0 -Pn 1 -Pl 0 -Pe 0->0 -Pw 0 -Pm 0 -Pc 0 -Pb 0->0 
N -t 0.004218 -n 27 -e 2.999972
N -t 0.004218 -n 20 -e 2.999972
N -t 0.004218 -n 32 -e 2.999972
N -t 0.004218 -n 11 -e 2.999972
N -t 0.004218 -n 35 -e 2.999972
N -t 0.004218 -n 0 -e 2.999972
N -t 0.004218 -n 21 -e 2.999972
N -t 0.004218 -n 28 -e 2.999972
N -t 0.004218 -n 12 -e 2.999972
N -t 0.004218 -n 33 -e 2.999972
N -t 0.004218 -n 1 -e 2.999972
N -t 0.004218 -n 6 -e 2.999972
N -t 0.004218 -n 13 -e 2.999972
N -t 0.004218 -n 22 -e 2.999972
N -t 0.004218 -n 2 -e 2.999972
N -t 0.004218 -n 29 -e 2.999972
N -t 0.004218 -n 7 -e 2.999972
N -t 0.004218 -n 16 -e 2.999972
N -t 0.004218 -n 3 -e 2.999972
N -t 0.004218 -n 14 -e 2.999972
N -t 0.004218 -n 8 -e 2.999972
N -t 0.004218 -n 23 -e 2.999972
N -t 0.004218 -n 17 -e 2.999972
N -t 0.004218 -n 24 -e 2.999972
N -t 0.004218 -n 4 -e 2.999972
N -t 0.004218 -n 9 -e 2.999972
N -t 0.004218 -n 15 -e 2.999972
N -t 0.004218 -n 18 -e 2.999972
N -t 0.004218 -n 25 -e 2.999972
N -t 0.004219 -n 30 -e 2.999972
N -t 0.004219 -n 10 -e 2.999972
N -t 0.004219 -n 19 -e 2.999972
N -t 0.004219 -n 5 -e 2.999972
N -t 0.004219 -n 26 -e 2.999972
N -t 0.004219 -n 31 -e 2.999972
N -t 0.004219 -n 34 -e 2.999972
s -t 0.009142857 -Hs 36 -Hd -2 -Ni 36 -Nx 2.00 -Ny 2.00 -Nz 0.00 -Ne 2.999974 -Nl AGT -Nw --- -Ma 0 -Md 0 -Ms 0 -Mt 0 -Is 36.0 -Id 2.0 -It cbr -Il 512 -If 0 -Ii 2 -Iv 32 -Pn cbr -Pi 1 -Pf 0 -Po 0 
r -t 0.009142857 -Hs 36 -Hd -2 -Ni 36 -Nx 2.00 -Ny 2.00 -Nz 0.00 -Ne 2.999974 -Nl RTR -Nw --- -Ma 0 -Md 0 -Ms 0 -Mt 0 -Is 36.0 -Id 2.0 -It cbr -Il 512 -If 0 -Ii 2 -Iv 32 -Pn cbr -Pi 1 -Pf 0 -Po 0 
s -t 0.018285714 -Hs 36 -Hd -2 -Ni 36 -Nx 2.00 -Ny 2.00 -Nz 0.00 -Ne 2.999974 -Nl AGT -Nw --- -Ma 0 -Md 0 -Ms 0 -Mt 0 -Is 36.0 -Id 2.0 -It cbr -Il 512 -If 0 -Ii 4 -Iv 32 -Pn cbr -Pi 2 -Pf 0 -Po 0 
r -t 0.018285714 -Hs 36 -Hd -2 -Ni 36 -Nx 2.00 -Ny 2.00 -Nz 0.00 -Ne 2.999974 -Nl RTR -Nw --- -Ma 0 -Md 0 -Ms 0 -Mt 0 -Is 36.0 -Id 2.0 -It cbr -Il 512 -If 0 -Ii 4 -Iv 32 -Pn cbr -Pi 2 -Pf 0 -Po 0 
s -t 0.027428571 -Hs 36 -Hd -2 -Ni 36 -Nx 2.00 -Ny 2.00 -Nz 0.00 -Ne 2.999974 -Nl AGT -Nw --- -Ma 0 -Md 0 -Ms 0 -Mt 0 -Is 36.0 -Id 2.0 -It cbr -Il 512 -If 0 -Ii 6 -Iv 32 -Pn cbr -Pi 3 -Pf 0 -Po 0 
r -t 0.027428571 -Hs 36 -Hd -2 -Ni 36 -Nx 2.00 -Ny 2.00 -Nz 0.00 -Ne 2.999974 -Nl RTR -Nw --- -Ma 0 -Md 0 -Ms 0 -Mt 0 -Is 36.0 -Id 2.0 -It cbr -Il 512 -If 0 -Ii 6 -Iv 32 -Pn cbr -Pi 3 -Pf 0 -Po 0 
s -t 0.036571429 -Hs 36 -Hd -2 -Ni 36 -Nx 2.00 -Ny 2.00 -Nz 0.00 -Ne 2.999974 -Nl AGT -Nw --- -Ma 0 -Md 0 -Ms 0 -Mt 0 -Is 36.0 -Id 2.0 -It cbr -Il 512 -If 0 -Ii 12 -Iv 32 -Pn cbr -Pi 4 -Pf 0 -Po 0 
r -t 0.036571429 -Hs 36 -Hd -2 -Ni 36 -Nx 2.00 -Ny 2.00 -Nz 0.00 -Ne 2.999974 -Nl RTR -Nw --- -Ma 0 -Md 0 -Ms 0 -Mt 0 -Is 36.0 -Id 2.0 -It cbr -Il 512 -If 0 -Ii 12 -Iv 32 -Pn cbr -Pi 4 -Pf 0 -Po 0 
s -t 0.039226228 -Hs 36 -Hd -1 -Ni 36 -Nx 2.00 -Ny 2.00 -Nz 0.00 -Ne 2.999974 -Nl RTR -Nw --- -Ma 0 -Md 0 -Ms 0 -Mt 0 -Is 36.255 -Id 2.255 -It DSR -Il 32 -If 0 -Ii 8 -Iv 32 -P dsr -Ph 1 -Pq 1 -Ps 2 -Pp 0 -Pn 2 -Pl 0 -Pe 0->0 -Pw 0 -Pm 0 -Pc 0 -Pb 0->0 
N -t 0.039462 -n 27 -e 2.999922
N -t 0.039462 -n 20 -e 2.999922
N -t 0.039462 -n 32 -e 2.999922
N -t 0.039462 -n 11 -e 2.999922
N -t 0.039462 -n 35 -e 2.999922
N -t 0.039462 -n 0 -e 2.999922
N -t 0.039462 -n 21 -e 2.999922
N -t 0.039462 -n 28 -e 2.999922
N -t 0.039462 -n 12 -e 2.999922
N -t 0.039462 -n 33 -e 2.999922
N -t 0.039462 -n 1 -e 2.999922
N -t 0.039462 -n 6 -e 2.999922
N -t 0.039462 -n 13 -e 2.999922
N -t 0.039462 -n 22 -e 2.999922
N -t 0.039462 -n 2 -e 2.999922
N -t 0.039462 -n 29 -e 2.999922
N -t 0.039462 -n 7 -e 2.999922
N -t 0.039462 -n 16 -e 2.999922
N -t 0.039462 -n 3 -e 2.999922
N -t 0.039462 -n 14 -e 2.999922
N -t 0.039462 -n 8 -e 2.999922
N -t 0.039462 -n 23 -e 2.999922
N -t 0.039462 -n 17 -e 2.999922
N -t 0.039463 -n 24 -e 2.999922
N -t 0.039463 -n 4 -e 2.999922
N -t 0.039463 -n 9 -e 2.999922
N -t 0.039463 -n 15 -e 2.999922
N -t 0.039463 -n 18 -e 2.999922
N -t 0.039463 -n 25 -e 2.999922
N -t 0.039463 -n 30 -e 2.999922
N -t 0.039463 -n 10 -e 2.999922
N -t 0.039463 -n 19 -e 2.999922
N -t 0.039463 -n 5 -e 2.999922
N -t 0.039463 -n 26 -e 2.999922
N -t 0.039463 -n 31 -e 2.999922
N -t 0.039463 -n 34 -e 2.999922
s -t 0.045714286 -Hs 36 -Hd -2 -Ni 36 -Nx 2.00 -Ny 2.00 -Nz 0.00 -Ne 2.999927 -Nl AGT -Nw --- -Ma 0 -Md 0 -Ms 0 -Mt 0 -Is 36.0 -Id 2.0 -It cbr -Il 512 -If 0 -Ii 14 -Iv 32 -Pn cbr -Pi 5 -Pf 0 -Po 0 
r -t 0.045714286 -Hs 36 -Hd -2 -Ni 36 -Nx 2.00 -Ny 2.00 -Nz 0.00 -Ne 2.999927 -Nl RTR -Nw --- -Ma 0 -Md 0 -Ms 0 -Mt 0 -Is 36.0 -Id 2.0 -It cbr -Il 512 -If 0 -Ii 14 -Iv 32 -Pn cbr -Pi 5 -Pf 0 -Po 0 
s -t 0.054857143 -Hs 36 -Hd -2 -Ni 36 -Nx 2.00 -Ny 2.00 -Nz 0.00 -Ne 2.999927 -Nl AGT -Nw --- -Ma 0 -Md 0 -Ms 0 -Mt 0 -Is 36.0 -Id 2.0 -It cbr -Il 512 -If 0 -Ii 16 -Iv 32 -Pn cbr -Pi 6 -Pf 0 -Po 0 
r -t 0.054857143 -Hs 36 -Hd -2 -Ni 36 -Nx 2.00 -Ny 2.00 -Nz 0.00 -Ne 2.999927 -Nl RTR -Nw --- -Ma 0 -Md 0 -Ms 0 -Mt 0 -Is 36.0 -Id 2.0 -It cbr -Il 512 -If 0 -Ii 16 -Iv 32 -Pn cbr -Pi 6 -Pf 0 -Po 0 
s -t 0.064000000 -Hs 36 -Hd -2 -Ni 36 -Nx 2.00 -Ny 2.00 -Nz 0.00 -Ne 2.999927 -Nl AGT -Nw --- -Ma 0 -Md 0 -Ms 0 -Mt 0 -Is 36.0 -Id 2.0 -It cbr -Il 512 -If 0 -Ii 18 -Iv 32 -Pn cbr -Pi 7 -Pf 0 -Po 0 
r -t 0.064000000 -Hs 36 -Hd -2 -Ni 36 -Nx 2.00 -Ny 2.00 -Nz 0.00 -Ne 2.999927 -Nl RTR -Nw --- -Ma 0 -Md 0 -Ms 0 -Mt 0 -Is 36.0 -Id 2.0 -It cbr -Il 512 -If 0 -Ii 18 -Iv 32 -Pn cbr -Pi 7 -Pf 0 -Po 0 
s -t 0.073142857 -Hs 36 -Hd -2 -Ni 36 -Nx 2.00 -Ny 2.00 -Nz 0.00 -Ne 2.999927 -Nl AGT -Nw --- -Ma 0 -Md 0 -Ms 0 -Mt 0 -Is 36.0 -Id 2.0 -It cbr -Il 512 -If 0 -Ii 20 -Iv 32 -Pn cbr -Pi 8 -Pf 0 -Po 0 
r -t 0.073142857 -Hs 36 -Hd -2 -Ni 36 -Nx 2.00 -Ny 2.00 -Nz 0.00 -Ne 2.999927 -Nl RTR -Nw --- -Ma 0 -Md 0 -Ms 0 -Mt 0 -Is 36.0 -Id 2.0 -It cbr -Il 512 -If 0 -Ii 20 -Iv 32 -Pn cbr -Pi 8 -Pf 0 -Po 0 
s -t 0.082285714 -Hs 36 -Hd -2 -Ni 36 -Nx 2.00 -Ny 2.00 -Nz 0.00 -Ne 2.999927 -Nl AGT -Nw --- -Ma 0 -Md 0 -Ms 0 -Mt 0 -Is 36.0 -Id 2.0 -It cbr -Il 512 -If 0 -Ii 31 -Iv 32 -Pn cbr -Pi 9 -Pf 0 -Po 0 
r -t 0.082285714 -Hs 36 -Hd -2 -Ni 36 -Nx 2.00 -Ny 2.00 -Nz 0.00 -Ne 2.999927 -Nl RTR -Nw --- -Ma 0 -Md 0 -Ms 0 -Mt 0 -Is 36.0 -Id 2.0 -It cbr -Il 512 -If 0 -Ii 31 -Iv 32 -Pn cbr -Pi 9 -Pf 0 -Po 0 
s -t 0.091428571 -Hs 36 -Hd -2 -Ni 36 -Nx 2.00 -Ny 2.00 -Nz 0.00 -Ne 2.999927 -Nl AGT -Nw --- -Ma 0 -Md 0 -Ms 0 -Mt 0 -Is 36.0 -Id 2.0 -It cbr -Il 512 -If 0 -Ii 33 -Iv 32 -Pn cbr -Pi 10 -Pf 0 -Po 0 
r -t 0.091428571 -Hs 36 -Hd -2 -Ni 36 -Nx 2.00 -Ny 2.00 -Nz 0.00 -Ne 2.999927 -Nl RTR -Nw --- -Ma 0 -Md 0 -Ms 0 -Mt 0 -Is 36.0 -Id 2.0 -It cbr -Il 512 -If 0 -Ii 33 -Iv 32 -Pn cbr -Pi 10 -Pf 0 -Po 0 
s -t 0.100571429 -Hs 36 -Hd -2 -Ni 36 -Nx 2.00 -Ny 2.00 -Nz 0.00 -Ne 2.999927 -Nl AGT -Nw --- -Ma 0 -Md 0 -Ms 0 -Mt 0 -Is 36.0 -Id 2.0 -It cbr -Il 512 -If 0 -Ii 35 -Iv 32 -Pn cbr -Pi 11 -Pf 0 -Po 0 
r -t 0.100571429 -Hs 36 -Hd -2 -Ni 36 -Nx 2.00 -Ny 2.00 -Nz 0.00 -Ne 2.999927 -Nl RTR -Nw --- -Ma 0 -Md 0 -Ms 0 -Mt 0 -Is 36.0 -Id 2.0 -It cbr -Il 512 -If 0 -Ii 35 -Iv 32 -Pn cbr -Pi 11 -Pf 0 -Po 0 
s -t 0.109714286 -Hs 36 -Hd -2 -Ni 36 -Nx 2.00 -Ny 2.00 -Nz 0.00 -Ne 2.999927 -Nl AGT -Nw --- -Ma 0 -Md 0 -Ms 0 -Mt 0 -Is 36.0 -Id 2.0 -It cbr -Il 512 -If 0 -Ii 49 -Iv 32 -Pn cbr -Pi 12 -Pf 0 -Po 0 
r -t 0.109714286 -Hs 36 -Hd -2 -Ni 36 -Nx 2.00 -Ny 2.00 -Nz 0.00 -Ne 2.999927 -Nl RTR -Nw --- -Ma 0 -Md 0 -Ms 0 -Mt 0 -Is 36.0 -Id 2.0 -It cbr -Il 512 -If 0 -Ii 49 -Iv 32 -Pn cbr -Pi 12 -Pf 0 -Po 0 
s -t 0.118857143 -Hs 36 -Hd -2 -Ni 36 -Nx 2.00 -Ny 2.00 -Nz 0.00 -Ne 2.999927 -Nl AGT -Nw --- -Ma 0 -Md 0 -Ms 0 -Mt 0 -Is 36.0 -Id 2.0 -It cbr -Il 512 -If 0 -Ii 51 -Iv 32 -Pn cbr -Pi 13 -Pf 0 -Po 0 
r -t 0.118857143 -Hs 36 -Hd -2 -Ni 36 -Nx 2.00 -Ny 2.00 -Nz 0.00 -Ne 2.999927 -Nl RTR -Nw --- -Ma 0 -Md 0 -Ms 0 -Mt 0 -Is 36.0 -Id 2.0 -It cbr -Il 512 -If 0 -Ii 51 -Iv 32 -Pn cbr -Pi 13 -Pf 0 -Po 0 
s -t 0.128000000 -Hs 36 -Hd -2 -Ni 36 -Nx 2.00 -Ny 2.00 -Nz 0.00 -Ne 2.999927 -Nl AGT -Nw --- -Ma 0 -Md 0 -Ms 0 -Mt 0 -Is 36.0 -Id 2.0 -It cbr -Il 512 -If 0 -Ii 53 -Iv 32 -Pn cbr -Pi 14 -Pf 0 -Po 0 
r -t 0.128000000 -Hs 36 -Hd -2 -Ni 36 -Nx 2.00 -Ny 2.00 -Nz 0.00 -Ne 2.999927 -Nl RTR -Nw --- -Ma 0 -Md 0 -Ms 0 -Mt 0 -Is 36.0 -Id 2.0 -It cbr -Il 512 -If 0 -Ii 53 -Iv 32 -Pn cbr -Pi 14 -Pf 0 -Po 0 
s -t 0.137142857 -Hs 36 -Hd -2 -Ni 36 -Nx 2.00 -Ny 2.00 -Nz 0.00 -Ne 2.999927 -Nl AGT -Nw --- -Ma 0 -Md 0 -Ms 0 -Mt 0 -Is 36.0 -Id 2.0 -It cbr -Il 512 -If 0 -Ii 55 -Iv 32 -Pn cbr -Pi 15 -Pf 0 -Po 0 
r -t 0.137142857 -Hs 36 -Hd -2 -Ni 36 -Nx 2.00 -Ny 2.00 -Nz 0.00 -Ne 2.999927 -Nl RTR -Nw --- -Ma 0 -Md 0 -Ms 0 -Mt 0 -Is 36.0 -Id 2.0 -It cbr -Il 512 -If 0 -Ii 55 -Iv 32 -Pn cbr -Pi 15 -Pf 0 -Po 0 
s -t 0.146285714 -Hs 36 -Hd -2 -Ni 36 -Nx 2.00 -Ny 2.00 -Nz 0.00 -Ne 2.999927 -Nl AGT -Nw --- -Ma 0 -Md 0 -Ms 0 -Mt 0 -Is 36.0 -Id 2.0 -It cbr -Il 512 -If 0 -Ii 57 -Iv 32 -Pn cbr -Pi 16 -Pf 0 -Po 0 
r -t 0.146285714 -Hs 36 -Hd -2 -Ni 36 -Nx 2.00 -Ny 2.00 -Nz 0.00 -Ne 2.999927 -Nl RTR -Nw --- -Ma 0 -Md 0 -Ms 0 -Mt 0 -Is 36.0 -Id 2.0 -It cbr -Il 512 -If 0 -Ii 57 -Iv 32 -Pn cbr -Pi 16 -Pf 0 -Po 0 
s -t 0.155428571 -Hs 36 -Hd -2 -Ni 36 -Nx 2.00 -Ny 2.00 -Nz 0.00 -Ne 2.999927 -Nl AGT -Nw --- -Ma 0 -Md 0 -Ms 0 -Mt 0 -Is 36.0 -Id 2.0 -It cbr -Il 512 -If 0 -Ii 76 -Iv 32 -Pn cbr -Pi 17 -Pf 0 -Po 0 
r -t 0.155428571 -Hs 36 -Hd -2 -Ni 36 -Nx 2.00 -Ny 2.00 -Nz 0.00 -Ne 2.999927 -Nl RTR -Nw --- -Ma 0 -Md 0 -Ms 0 -Mt 0 -Is 36.0 -Id 2.0 -It cbr -Il 512 -If 0 -Ii 76 -Iv 32 -Pn cbr -Pi 17 -Pf 0 -Po 0 
s -t 0.164571429 -Hs 36 -Hd -2 -Ni 36 -Nx 2.00 -Ny 2.00 -Nz 0.00 -Ne 2.999927 -Nl AGT -Nw --- -Ma 0 -Md 0 -Ms 0 -Mt 0 -Is 36.0 -Id 2.0 -It cbr -Il 512 -If 0 -Ii 78 -Iv 32 -Pn cbr -Pi 18 -Pf 0 -Po 0 
r -t 0.164571429 -Hs 36 -Hd -2 -Ni 36 -Nx 2.00 -Ny 2.00 -Nz 0.00 -Ne 2.999927 -Nl RTR -Nw --- -Ma 0 -Md 0 -Ms 0 -Mt 0 -Is 36.0 -Id 2.0 -It cbr -Il 512 -If 0 -Ii 78 -Iv 32 -Pn cbr -Pi 18 -Pf 0 -Po 0 
s -t 0.173714286 -Hs 36 -Hd -2 -Ni 36 -Nx 2.00 -Ny 2.00 -Nz 0.00 -Ne 2.999927 -Nl AGT -Nw --- -Ma 0 -Md 0 -Ms 0 -Mt 0 -Is 36.0 -Id 2.0 -It cbr -Il 512 -If 0 -Ii 80 -Iv 32 -Pn cbr -Pi 19 -Pf 0 -Po 0 
r -t 0.173714286 -Hs 36 -Hd -2 -Ni 36 -Nx 2.00 -Ny 2.00 -Nz 0.00 -Ne 2.999927 -Nl RTR -Nw --- -Ma 0 -Md 0 -Ms 0 -Mt 0 -Is 36.0 -Id 2.0 -It cbr -Il 512 -If 0 -Ii 80 -Iv 32 -Pn cbr -Pi 19 -Pf 0 -Po 0 
s -t 0.182857143 -Hs 36 -Hd -2 -Ni 36 -Nx 2.00 -Ny 2.00 -Nz 0.00 -Ne 2.999927 -Nl AGT -Nw --- -Ma 0 -Md 0 -Ms 0 -Mt 0 -Is 36.0 -Id 2.0 -It cbr -Il 512 -If 0 -Ii 82 -Iv 32 -Pn cbr -Pi 20 -Pf 0 -Po 0 
r -t 0.182857143 -Hs 36 -Hd -2 -Ni 36 -Nx 2.00 -Ny 2.00 -Nz 0.00 -Ne 2.999927 -Nl RTR -Nw --- -Ma 0 -Md 0 -Ms 0 -Mt 0 -Is 36.0 -Id 2.0 -It cbr -Il 512 -If 0 -Ii 82 -Iv 32 -Pn cbr -Pi 20 -Pf 0 -Po 0 
s -t 0.192000000 -Hs 36 -Hd -2 -Ni 36 -Nx 2.00 -Ny 2.00 -Nz 0.00 -Ne 2.999927 -Nl AGT -Nw --- -Ma 0 -Md 0 -Ms 0 -Mt 0 -Is 36.0 -Id 2.0 -It cbr -Il 512 -If 0 -Ii 105 -Iv 32 -Pn cbr -Pi 21 -Pf 0 -Po 0 
r -t 0.192000000 -Hs 36 -Hd -2 -Ni 36 -Nx 2.00 -Ny 2.00 -Nz 0.00 -Ne 2.999927 -Nl RTR -Nw --- -Ma 0 -Md 0 -Ms 0 -Mt 0 -Is 36.0 -Id 2.0 -It cbr -Il 512 -If 0 -Ii 105 -Iv 32 -Pn cbr -Pi 21 -Pf 0 -Po 0 
M 0.20000 36 (2.00, 2.00, 0.00), (299.00, 240.00), 25.00
s -t 0.201142857 -Hs 36 -Hd -2 -Ni 36 -Nx 2.02 -Ny 2.02 -Nz 0.00 -Ne 2.999927 -Nl AGT -Nw --- -Ma 0 -Md 0 -Ms 0 -Mt 0 -Is 36.0 -Id 2.0 -It cbr -Il 512 -If 0 -Ii 107 -Iv 32 -Pn cbr -Pi 22 -Pf 0 -Po 0 
r -t 0.201142857 -Hs 36 -Hd -2 -Ni 36 -Nx 2.02 -Ny 2.02 -Nz 0.00 -Ne 2.999927 -Nl RTR -Nw --- -Ma 0 -Md 0 -Ms 0 -Mt 0 -Is 36.0 -Id 2.0 -It cbr -Il 512 -If 0 -Ii 107 -Iv 32 -Pn cbr -Pi 22 -Pf 0 -Po 0 
s -t 0.210285714 -Hs 36 -Hd -2 -Ni 36 -Nx 2.20 -Ny 2.16 -Nz 0.00 -Ne 2.999927 -Nl AGT -Nw --- -Ma 0 -Md 0 -Ms 0 -Mt 0 -Is 36.0 -Id 2.0 -It cbr -Il 512 -If 0 -Ii 109 -Iv 32 -Pn cbr -Pi 23 -Pf 0 -Po 0 
r -t 0.210285714 -Hs 36 -Hd -2 -Ni 36 -Nx 2.20 -Ny 2.16 -Nz 0.00 -Ne 2.999927 -Nl RTR -Nw --- -Ma 0 -Md 0 -Ms 0 -Mt 0 -Is 36.0 -Id 2.0 -It cbr -Il 512 -If 0 -Ii 109 -Iv 32 -Pn cbr -Pi 23 -Pf 0 -Po 0 
s -t 0.219428571 -Hs 36 -Hd -2 -Ni 36 -Nx 2.38 -Ny 2.30 -Nz 0.00 -Ne 2.999927 -Nl AGT -Nw --- -Ma 0 -Md 0 -Ms 0 -Mt 0 -Is 36.0 -Id 2.0 -It cbr -Il 512 -If 0 -Ii 111 -Iv 32 -Pn cbr -Pi 24 -Pf 0 -Po 0 
r -t 0.219428571 -Hs 36 -Hd -2 -Ni 36 -Nx 2.38 -Ny 2.30 -Nz 0.00 -Ne 2.999927 -Nl RTR -Nw --- -Ma 0 -Md 0 -Ms 0 -Mt 0 -Is 36.0 -Id 2.0 -It cbr -Il 512 -If 0 -Ii 111 -Iv 32 -Pn cbr -Pi 24 -Pf 0 -Po 0 
s -t 0.228571429 -Hs 36 -Hd -2 -Ni 36 -Nx 2.56 -Ny 2.45 -Nz 0.00 -Ne 2.999927 -Nl AGT -Nw --- -Ma 0 -Md 0 -Ms 0 -Mt 0 -Is 36.0 -Id 2.0 -It cbr -Il 512 -If 0 -Ii 113 -Iv 32 -Pn cbr -Pi 25 -Pf 0 -Po 0 
r -t 0.228571429 -Hs 36 -Hd -2 -Ni 36 -Nx 2.56 -Ny 2.45 -Nz 0.00 -Ne 2.999927 -Nl RTR -Nw --- -Ma 0 -Md 0 -Ms 0 -Mt 0 -Is 36.0 -Id 2.0 -It cbr -Il 512 -If 0 -Ii 113 -Iv 32 -Pn cbr -Pi 25 -Pf 0 -Po 0 
s -t 0.237714286 -Hs 36 -Hd -2 -Ni 36 -Nx 2.74 -Ny 2.59 -Nz 0.00 -Ne 2.999927 -Nl AGT -Nw --- -Ma 0 -Md 0 -Ms 0 -Mt 0 -Is 36.0 -Id 2.0 -It cbr -Il 512 -If 0 -Ii 141 -Iv 32 -Pn cbr -Pi 26 -Pf 0 -Po 0 
r -t 0.237714286 -Hs 36 -Hd -2 -Ni 36 -Nx 2.74 -Ny 2.59 -Nz 0.00 -Ne 2.999927 -Nl RTR -Nw --- -Ma 0 -Md 0 -Ms 0 -Mt 0 -Is 36.0 -Id 2.0 -It cbr -Il 512 -If 0 -Ii 141 -Iv 32 -Pn cbr -Pi 26 -Pf 0 -Po 0 
s -t 0.246857143 -Hs 36 -Hd -2 -Ni 36 -Nx 2.91 -Ny 2.73 -Nz 0.00 -Ne 2.999927 -Nl AGT -Nw --- -Ma 0 -Md 0 -Ms 0 -Mt 0 -Is 36.0 -Id 2.0 -It cbr -Il 512 -If 0 -Ii 143 -Iv 32 -Pn cbr -Pi 27 -Pf 0 -Po 0 
r -t 0.246857143 -Hs 36 -Hd -2 -Ni 36 -Nx 2.91 -Ny 2.73 -Nz 0.00 -Ne 2.999927 -Nl RTR -Nw --- -Ma 0 -Md 0 -Ms 0 -Mt 0 -Is 36.0 -Id 2.0 -It cbr -Il 512 -If 0 -Ii 143 -Iv 32 -Pn cbr -Pi 27 -Pf 0 -Po 0 
s -t 0.256000000 -Hs 36 -Hd -2 -Ni 36 -Nx 3.09 -Ny 2.88 -Nz 0.00 -Ne 2.999927 -Nl AGT -Nw --- -Ma 0 -Md 0 -Ms 0 -Mt 0 -Is 36.0 -Id 2.0 -It cbr -Il 512 -If 0 -Ii 145 -Iv 32 -Pn cbr -Pi 28 -Pf 0 -Po 0 
r -t 0.256000000 -Hs 36 -Hd -2 -Ni 36 -Nx 3.09 -Ny 2.88 -Nz 0.00 -Ne 2.999927 -Nl RTR -Nw --- -Ma 0 -Md 0 -Ms 0 -Mt 0 -Is 36.0 -Id 2.0 -It cbr -Il 512 -If 0 -Ii 145 -Iv 32 -Pn cbr -Pi 28 -Pf 0 -Po 0 
s -t 0.265142857 -Hs 36 -Hd -2 -Ni 36 -Nx 3.27 -Ny 3.02 -Nz 0.00 -Ne 2.999927 -Nl AGT -Nw --- -Ma 0 -Md 0 -Ms 0 -Mt 0 -Is 36.0 -Id 2.0 -It cbr -Il 512 -If 0 -Ii 147 -Iv 32 -Pn cbr -Pi 29 -Pf 0 -Po 0 
r -t 0.265142857 -Hs 36 -Hd -2 -Ni 36 -Nx 3.27 -Ny 3.02 -Nz 0.00 -Ne 2.999927 -Nl RTR -Nw --- -Ma 0 -Md 0 -Ms 0 -Mt 0 -Is 36.0 -Id 2.0 -It cbr -Il 512 -If 0 -Ii 147 -Iv 32 -Pn cbr -Pi 29 -Pf 0 -Po 0 
s -t 0.274285714 -Hs 36 -Hd -2 -Ni 36 -Nx 3.45 -Ny 3.16 -Nz 0.00 -Ne 2.999927 -Nl AGT -Nw --- -Ma 0 -Md 0 -Ms 0 -Mt 0 -Is 36.0 -Id 2.0 -It cbr -Il 512 -If 0 -Ii 149 -Iv 32 -Pn cbr -Pi 30 -Pf 0 -Po 0 
r -t 0.274285714 -Hs 36 -Hd -2 -Ni 36 -Nx 3.45 -Ny 3.16 -Nz 0.00 -Ne 2.999927 -Nl RTR -Nw --- -Ma 0 -Md 0 -Ms 0 -Mt 0 -Is 36.0 -Id 2.0 -It cbr -Il 512 -If 0 -Ii 149 -Iv 32 -Pn cbr -Pi 30 -Pf 0 -Po 0 
s -t 0.283428571 -Hs 36 -Hd -2 -Ni 36 -Nx 3.63 -Ny 3.30 -Nz 0.00 -Ne 2.999927 -Nl AGT -Nw --- -Ma 0 -Md 0 -Ms 0 -Mt 0 -Is 36.0 -Id 2.0 -It cbr -Il 512 -If 0 -Ii 182 -Iv 32 -Pn cbr -Pi 31 -Pf 0 -Po 0 
r -t 0.283428571 -Hs 36 -Hd -2 -Ni 36 -Nx 3.63 -Ny 3.30 -Nz 0.00 -Ne 2.999927 -Nl RTR -Nw --- -Ma 0 -Md 0 -Ms 0 -Mt 0 -Is 36.0 -Id 2.0 -It cbr -Il 512 -If 0 -Ii 182 -Iv 32 -Pn cbr -Pi 31 -Pf 0 -Po 0 
s -t 0.292571429 -Hs 36 -Hd -2 -Ni 36 -Nx 3.81 -Ny 3.45 -Nz 0.00 -Ne 2.999927 -Nl AGT -Nw --- -Ma 0 -Md 0 -Ms 0 -Mt 0 -Is 36.0 -Id 2.0 -It cbr -Il 512 -If 0 -Ii 184 -Iv 32 -Pn cbr -Pi 32 -Pf 0 -Po 0 
r -t 0.292571429 -Hs 36 -Hd -2 -Ni 36 -Nx 3.81 -Ny 3.45 -Nz 0.00 -Ne 2.999927 -Nl RTR -Nw --- -Ma 0 -Md 0 -Ms 0 -Mt 0 -Is 36.0 -Id 2.0 -It cbr -Il 512 -If 0 -Ii 184 -Iv 32 -Pn cbr -Pi 32 -Pf 0 -Po 0 
s -t 0.301714286 -Hs 36 -Hd -2 -Ni 36 -Nx 3.98 -Ny 3.59 -Nz 0.00 -Ne 2.999927 -Nl AGT -Nw --- -Ma 0 -Md 0 -Ms 0 -Mt 0 -Is 36.0 -Id 2.0 -It cbr -Il 512 -If 0 -Ii 186 -Iv 32 -Pn cbr -Pi 33 -Pf 0 -Po 0 
r -t 0.301714286 -Hs 36 -Hd -2 -Ni 36 -Nx 3.98 -Ny 3.59 -Nz 0.00 -Ne 2.999927 -Nl RTR -Nw --- -Ma 0 -Md 0 -Ms 0 -Mt 0 -Is 36.0 -Id 2.0 -It cbr -Il 512 -If 0 -Ii 186 -Iv 32 -Pn cbr -Pi 33 -Pf 0 -Po 0 
s -t 0.310857143 -Hs 36 -Hd -2 -Ni 36 -Nx 4.16 -Ny 3.73 -Nz 0.00 -Ne 2.999927 -Nl AGT -Nw --- -Ma 0 -Md 0 -Ms 0 -Mt 0 -Is 36.0 -Id 2.0 -It cbr -Il 512 -If 0 -Ii 188 -Iv 32 -Pn cbr -Pi 34 -Pf 0 -Po 0 
r -t 0.310857143 -Hs 36 -Hd -2 -Ni 36 -Nx 4.16 -Ny 3.73 -Nz 0.00 -Ne 2.999927 -Nl RTR -Nw --- -Ma 0 -Md 0 -Ms 0 -Mt 0 -Is 36.0 -Id 2.0 -It cbr -Il 512 -If 0 -Ii 188 -Iv 32 -Pn cbr -Pi 34 -Pf 0 -Po 0 
s -t 0.320000000 -Hs 36 -Hd -2 -Ni 36 -Nx 4.34 -Ny 3.88 -Nz 0.00 -Ne 2.999927 -Nl AGT -Nw --- -Ma 0 -Md 0 -Ms 0 -Mt 0 -Is 36.0 -Id 2.0 -It cbr -Il 512 -If 0 -Ii 190 -Iv 32 -Pn cbr -Pi 35 -Pf 0 -Po 0 
r -t 0.320000000 -Hs 36 -Hd -2 -Ni 36 -Nx 4.34 -Ny 3.88 -Nz 0.00 -Ne 2.999927 -Nl RTR -Nw --- -Ma 0 -Md 0 -Ms 0 -Mt 0 -Is 36.0 -Id 2.0 -It cbr -Il 512 -If 0 -Ii 190 -Iv 32 -Pn cbr -Pi 35 -Pf 0 -Po 0 
s -t 0.329142857 -Hs 36 -Hd -2 -Ni 36 -Nx 4.52 -Ny 4.02 -Nz 0.00 -Ne 2.999927 -Nl AGT -Nw --- -Ma 0 -Md 0 -Ms 0 -Mt 0 -Is 36.0 -Id 2.0 -It cbr -Il 512 -If 0 -Ii 228 -Iv 32 -Pn cbr -Pi 36 -Pf 0 -Po 0 
r -t 0.329142857 -Hs 36 -Hd -2 -Ni 36 -Nx 4.52 -Ny 4.02 -Nz 0.00 -Ne 2.999927 -Nl RTR -Nw --- -Ma 0 -Md 0 -Ms 0 -Mt 0 -Is 36.0 -Id 2.0 -It cbr -Il 512 -If 0 -Ii 228 -Iv 32 -Pn cbr -Pi 36 -Pf 0 -Po 0 
s -t 0.338285714 -Hs 36 -Hd -2 -Ni 36 -Nx 4.70 -Ny 4.16 -Nz 0.00 -Ne 2.999927 -Nl AGT -Nw --- -Ma 0 -Md 0 -Ms 0 -Mt 0 -Is 36.0 -Id 2.0 -It cbr -Il 512 -If 0 -Ii 230 -Iv 32 -Pn cbr -Pi 37 -Pf 0 -Po 0 
r -t 0.338285714 -Hs 36 -Hd -2 -Ni 36 -Nx 4.70 -Ny 4.16 -Nz 0.00 -Ne 2.999927 -Nl RTR -Nw --- -Ma 0 -Md 0 -Ms 0 -Mt 0 -Is 36.0 -Id 2.0 -It cbr -Il 512 -If 0 -Ii 230 -Iv 32 -Pn cbr -Pi 37 -Pf 0 -Po 0 
s -t 0.347428571 -Hs 36 -Hd -2 -Ni 36 -Nx 4.88 -Ny 4.30 -Nz 0.00 -Ne 2.999927 -Nl AGT -Nw --- -Ma 0 -Md 0 -Ms 0 -Mt 0 -Is 36.0 -Id 2.0 -It cbr -Il 512 -If 0 -Ii 232 -Iv 32 -Pn cbr -Pi 38 -Pf 0 -Po 0 
r -t 0.347428571 -Hs 36 -Hd -2 -Ni 36 -Nx 4.88 -Ny 4.30 -Nz 0.00 -Ne 2.999927 -Nl RTR -Nw --- -Ma 0 -Md 0 -Ms 0 -Mt 0 -Is 36.0 -Id 2.0 -It cbr -Il 512 -If 0 -Ii 232 -Iv 32 -Pn cbr -Pi 38 -Pf 0 -Po 0 
s -t 0.356571429 -Hs 36 -Hd -2 -Ni 36 -Nx 5.05 -Ny 4.45 -Nz 0.00 -Ne 2.999927 -Nl AGT -Nw --- -Ma 0 -Md 0 -Ms 0 -Mt 0 -Is 36.0 -Id 2.0 -It cbr -Il 512 -If 0 -Ii 234 -Iv 32 -Pn cbr -Pi 39 -Pf 0 -Po 0 
r -t 0.356571429 -Hs 36 -Hd -2 -Ni 36 -Nx 5.05 -Ny 4.45 -Nz 0.00 -Ne 2.999927 -Nl RTR -Nw --- -Ma 0 -Md 0 -Ms 0 -Mt 0 -Is 36.0 -Id 2.0 -It cbr -Il 512 -If 0 -Ii 234 -Iv 32 -Pn cbr -Pi 39 -Pf 0 -Po 0 
s -t 0.365714286 -Hs 36 -Hd -2 -Ni 36 -Nx 5.23 -Ny 4.59 -Nz 0.00 -Ne 2.999927 -Nl AGT -Nw --- -Ma 0 -Md 0 -Ms 0 -Mt 0 -Is 36.0 -Id 2.0 -It cbr -Il 512 -If 0 -Ii 276 -Iv 32 -Pn cbr -Pi 40 -Pf 0 -Po 0 
r -t 0.365714286 -Hs 36 -Hd -2 -Ni 36 -Nx 5.23 -Ny 4.59 -Nz 0.00 -Ne 2.999927 -Nl RTR -Nw --- -Ma 0 -Md 0 -Ms 0 -Mt 0 -Is 36.0 -Id 2.0 -It cbr -Il 512 -If 0 -Ii 276 -Iv 32 -Pn cbr -Pi 40 -Pf 0 -Po 0 
s -t 0.374857143 -Hs 36 -Hd -2 -Ni 36 -Nx 5.41 -Ny 4.73 -Nz 0.00 -Ne 2.999927 -Nl AGT -Nw --- -Ma 0 -Md 0 -Ms 0 -Mt 0 -Is 36.0 -Id 2.0 -It cbr -Il 512 -If 0 -Ii 278 -Iv 32 -Pn cbr -Pi 41 -Pf 0 -Po 0 
r -t 0.374857143 -Hs 36 -Hd -2 -Ni 36 -Nx 5.41 -Ny 4.73 -Nz 0.00 -Ne 2.999927 -Nl RTR -Nw --- -Ma 0 -Md 0 -Ms 0 -Mt 0 -Is 36.0 -Id 2.0 -It cbr -Il 512 -If 0 -Ii 278 -Iv 32 -Pn cbr -Pi 41 -Pf 0 -Po 0 
s -t 0.384000000 -Hs 36 -Hd -2 -Ni 36 -Nx 5.59 -Ny 4.88 -Nz 0.00 -Ne 2.999927 -Nl AGT -Nw --- -Ma 0 -Md 0 -Ms 0 -Mt 0 -Is 36.0 -Id 2.0 -It cbr -Il 512 -If 0 -Ii 280 -Iv 32 -Pn cbr -Pi 42 -Pf 0 -Po 0 
r -t 0.384000000 -Hs 36 -Hd -2 -Ni 36 -Nx 5.59 -Ny 4.88 -Nz 0.00 -Ne 2.999927 -Nl RTR -Nw --- -Ma 0 -Md 0 -Ms 0 -Mt 0 -Is 36.0 -Id 2.0 -It cbr -Il 512 -If 0 -Ii 280 -Iv 32 -Pn cbr -Pi 42 -Pf 0 -Po 0 
s -t 0.393142857 -Hs 36 -Hd -2 -Ni 36 -Nx 5.77 -Ny 5.02 -Nz 0.00 -Ne 2.999927 -Nl AGT -Nw --- -Ma 0 -Md 0 -Ms 0 -Mt 0 -Is 36.0 -Id 2.0 -It cbr -Il 512 -If 0 -Ii 282 -Iv 32 -Pn cbr -Pi 43 -Pf 0 -Po 0 
r -t 0.393142857 -Hs 36 -Hd -2 -Ni 36 -Nx 5.77 -Ny 5.02 -Nz 0.00 -Ne 2.999927 -Nl RTR -Nw --- -Ma 0 -Md 0 -Ms 0 -Mt 0 -Is 36.0 -Id 2.0 -It cbr -Il 512 -If 0 -Ii 282 -Iv 32 -Pn cbr -Pi 43 -Pf 0 -Po 0 
s -t 0.402285714 -Hs 36 -Hd -2 -Ni 36 -Nx 5.95 -Ny 5.16 -Nz 0.00 -Ne 2.999927 -Nl AGT -Nw --- -Ma 0 -Md 0 -Ms 0 -Mt 0 -Is 36.0 -Id 2.0 -It cbr -Il 512 -If 0 -Ii 284 -Iv 32 -Pn cbr -Pi 44 -Pf 0 -Po 0 
r -t 0.402285714 -Hs 36 -Hd -2 -Ni 36 -Nx 5.95 -Ny 5.16 -Nz 0.00 -Ne 2.999927 -Nl RTR -Nw --- -Ma 0 -Md 0 -Ms 0 -Mt 0 -Is 36.0 -Id 2.0 -It cbr -Il 512 -If 0 -Ii 284 -Iv 32 -Pn cbr -Pi 44 -Pf 0 -Po 0 
s -t 0.411428571 -Hs 36 -Hd -2 -Ni 36 -Nx 6.12 -Ny 5.31 -Nz 0.00 -Ne 2.999927 -Nl AGT -Nw --- -Ma 0 -Md 0 -Ms 0 -Mt 0 -Is 36.0 -Id 2.0 -It cbr -Il 512 -If 0 -Ii 286 -Iv 32 -Pn cbr -Pi 45 -Pf 0 -Po 0 
r -t 0.411428571 -Hs 36 -Hd -2 -Ni 36 -Nx 6.12 -Ny 5.31 -Nz 0.00 -Ne 2.999927 -Nl RTR -Nw --- -Ma 0 -Md 0 -Ms 0 -Mt 0 -Is 36.0 -Id 2.0 -It cbr -Il 512 -If 0 -Ii 286 -Iv 32 -Pn cbr -Pi 45 -Pf 0 -Po 0 
s -t 0.420571429 -Hs 36 -Hd -2 -Ni 36 -Nx 6.30 -Ny 5.45 -Nz 0.00 -Ne 2.999927 -Nl AGT -Nw --- -Ma 0 -Md 0 -Ms 0 -Mt 0 -Is 36.0 -Id 2.0 -It cbr -Il 512 -If 0 -Ii 334 -Iv 32 -Pn cbr -Pi 46 -Pf 0 -Po 0 
r -t 0.420571429 -Hs 36 -Hd -2 -Ni 36 -Nx 6.30 -Ny 5.45 -Nz 0.00 -Ne 2.999927 -Nl RTR -Nw --- -Ma 0 -Md 0 -Ms 0 -Mt 0 -Is 36.0 -Id 2.0 -It cbr -Il 512 -If 0 -Ii 334 -Iv 32 -Pn cbr -Pi 46 -Pf 0 -Po 0 
s -t 0.429714286 -Hs 36 -Hd -2 -Ni 36 -Nx 6.48 -Ny 5.59 -Nz 0.00 -Ne 2.999927 -Nl AGT -Nw --- -Ma 0 -Md 0 -Ms 0 -Mt 0 -Is 36.0 -Id 2.0 -It cbr -Il 512 -If 0 -Ii 336 -Iv 32 -Pn cbr -Pi 47 -Pf 0 -Po 0 
r -t 0.429714286 -Hs 36 -Hd -2 -Ni 36 -Nx 6.48 -Ny 5.59 -Nz 0.00 -Ne 2.999927 -Nl RTR -Nw --- -Ma 0 -Md 0 -Ms 0 -Mt 0 -Is 36.0 -Id 2.0 -It cbr -Il 512 -If 0 -Ii 336 -Iv 32 -Pn cbr -Pi 47 -Pf 0 -Po 0 
s -t 0.438857143 -Hs 36 -Hd -2 -Ni 36 -Nx 6.66 -Ny 5.73 -Nz 0.00 -Ne 2.999927 -Nl AGT -Nw --- -Ma 0 -Md 0 -Ms 0 -Mt 0 -Is 36.0 -Id 2.0 -It cbr -Il 512 -If 0 -Ii 338 -Iv 32 -Pn cbr -Pi 48 -Pf 0 -Po 0 
r -t 0.438857143 -Hs 36 -Hd -2 -Ni 36 -Nx 6.66 -Ny 5.73 -Nz 0.00 -Ne 2.999927 -Nl RTR -Nw --- -Ma 0 -Md 0 -Ms 0 -Mt 0 -Is 36.0 -Id 2.0 -It cbr -Il 512 -If 0 -Ii 338 -Iv 32 -Pn cbr -Pi 48 -Pf 0 -Po 0 
s -t 0.448000000 -Hs 36 -Hd -2 -Ni 36 -Nx 6.84 -Ny 5.88 -Nz 0.00 -Ne 2.999927 -Nl AGT -Nw --- -Ma 0 -Md 0 -Ms 0 -Mt 0 -Is 36.0 -Id 2.0 -It cbr -Il 512 -If 0 -Ii 340 -Iv 32 -Pn cbr -Pi 49 -Pf 0 -Po 0 
r -t 0.448000000 -Hs 36 -Hd -2 -Ni 36 -Nx 6.84 -Ny 5.88 -Nz 0.00 -Ne 2.999927 -Nl RTR -Nw --- -Ma 0 -Md 0 -Ms 0 -Mt 0 -Is 36.0 -Id 2.0 -It cbr -Il 512 -If 0 -Ii 340 -Iv 32 -Pn cbr -Pi 49 -Pf 0 -Po 0 
s -t 0.457142857 -Hs 36 -Hd -2 -Ni 36 -Nx 7.02 -Ny 6.02 -Nz 0.00 -Ne 2.999927 -Nl AGT -Nw --- -Ma 0 -Md 0 -Ms 0 -Mt 0 -Is 36.0 -Id 2.0 -It cbr -Il 512 -If 0 -Ii 342 -Iv 32 -Pn cbr -Pi 50 -Pf 0 -Po 0 
r -t 0.457142857 -Hs 36 -Hd -2 -Ni 36 -Nx 7.02 -Ny 6.02 -Nz 0.00 -Ne 2.999927 -Nl RTR -Nw --- -Ma 0 -Md 0 -Ms 0 -Mt 0 -Is 36.0 -Id 2.0 -It cbr -Il 512 -If 0 -Ii 342 -Iv 32 -Pn cbr -Pi 50 -Pf 0 -Po 0 
s -t 0.466285714 -Hs 36 -Hd -2 -Ni 36 -Nx 7.19 -Ny 6.16 -Nz 0.00 -Ne 2.999927 -Nl AGT -Nw --- -Ma 0 -Md 0 -Ms 0 -Mt 0 -Is 36.0 -Id 2.0 -It cbr -Il 512 -If 0 -Ii 395 -Iv 32 -Pn cbr -Pi 51 -Pf 0 -Po 0 
r -t 0.466285714 -Hs 36 -Hd -2 -Ni 36 -Nx 7.19 -Ny 6.16 -Nz 0.00 -Ne 2.999927 -Nl RTR -Nw --- -Ma 0 -Md 0 -Ms 0 -Mt 0 -Is 36.0 -Id 2.0 -It cbr -Il 512 -If 0 -Ii 395 -Iv 32 -Pn cbr -Pi 51 -Pf 0 -Po 0 
s -t 0.475428571 -Hs 36 -Hd -2 -Ni 36 -Nx 7.37 -Ny 6.31 -Nz 0.00 -Ne 2.999927 -Nl AGT -Nw --- -Ma 0 -Md 0 -Ms 0 -Mt 0 -Is 36.0 -Id 2.0 -It cbr -Il 512 -If 0 -Ii 397 -Iv 32 -Pn cbr -Pi 52 -Pf 0 -Po 0 
r -t 0.475428571 -Hs 36 -Hd -2 -Ni 36 -Nx 7.37 -Ny 6.31 -Nz 0.00 -Ne 2.999927 -Nl RTR -Nw --- -Ma 0 -Md 0 -Ms 0 -Mt 0 -Is 36.0 -Id 2.0 -It cbr -Il 512 -If 0 -Ii 397 -Iv 32 -Pn cbr -Pi 52 -Pf 0 -Po 0 
s -t 0.484571429 -Hs 36 -Hd -2 -Ni 36 -Nx 7.55 -Ny 6.45 -Nz 0.00 -Ne 2.999927 -Nl AGT -Nw --- -Ma 0 -Md 0 -Ms 0 -Mt 0 -Is 36.0 -Id 2.0 -It cbr -Il 512 -If 0 -Ii 399 -Iv 32 -Pn cbr -Pi 53 -Pf 0 -Po 0 
r -t 0.484571429 -Hs 36 -Hd -2 -Ni 36 -Nx 7.55 -Ny 6.45 -Nz 0.00 -Ne 2.999927 -Nl RTR -Nw --- -Ma 0 -Md 0 -Ms 0 -Mt 0 -Is 36.0 -Id 2.0 -It cbr -Il 512 -If 0 -Ii 399 -Iv 32 -Pn cbr -Pi 53 -Pf 0 -Po 0 
s -t 0.493714286 -Hs 36 -Hd -2 -Ni 36 -Nx 7.73 -Ny 6.59 -Nz 0.00 -Ne 2.999927 -Nl AGT -Nw --- -Ma 0 -Md 0 -Ms 0 -Mt 0 -Is 36.0 -Id 2.0 -It cbr -Il 512 -If 0 -Ii 401 -Iv 32 -Pn cbr -Pi 54 -Pf 0 -Po 0 
r -t 0.493714286 -Hs 36 -Hd -2 -Ni 36 -Nx 7.73 -Ny 6.59 -Nz 0.00 -Ne 2.999927 -Nl RTR -Nw --- -Ma 0 -Md 0 -Ms 0 -Mt 0 -Is 36.0 -Id 2.0 -It cbr -Il 512 -If 0 -Ii 401 -Iv 32 -Pn cbr -Pi 54 -Pf 0 -Po 0 
s -t 0.502857143 -Hs 36 -Hd -2 -Ni 36 -Nx 7.91 -Ny 6.73 -Nz 0.00 -Ne 2.999927 -Nl AGT -Nw --- -Ma 0 -Md 0 -Ms 0 -Mt 0 -Is 36.0 -Id 2.0 -It cbr -Il 512 -If 0 -Ii 458 -Iv 32 -Pn cbr -Pi 55 -Pf 0 -Po 0 
r -t 0.502857143 -Hs 36 -Hd -2 -Ni 36 -Nx 7.91 -Ny 6.73 -Nz 0.00 -Ne 2.999927 -Nl RTR -Nw --- -Ma 0 -Md 0 -Ms 0 -Mt 0 -Is 36.0 -Id 2.0 -It cbr -Il 512 -If 0 -Ii 458 -Iv 32 -Pn cbr -Pi 55 -Pf 0 -Po 0 
s -t 0.512000000 -Hs 36 -Hd -2 -Ni 36 -Nx 8.09 -Ny 6.88 -Nz 0.00 -Ne 2.999927 -Nl AGT -Nw --- -Ma 0 -Md 0 -Ms 0 -Mt 0 -Is 36.0 -Id 2.0 -It cbr -Il 512 -If 0 -Ii 460 -Iv 32 -Pn cbr -Pi 56 -Pf 0 -Po 0 
r -t 0.512000000 -Hs 36 -Hd -2 -Ni 36 -Nx 8.09 -Ny 6.88 -Nz 0.00 -Ne 2.999927 -Nl RTR -Nw --- -Ma 0 -Md 0 -Ms 0 -Mt 0 -Is 36.0 -Id 2.0 -It cbr -Il 512 -If 0 -Ii 460 -Iv 32 -Pn cbr -Pi 56 -Pf 0 -Po 0 
s -t 0.521142857 -Hs 36 -Hd -2 -Ni 36 -Nx 8.27 -Ny 7.02 -Nz 0.00 -Ne 2.999927 -Nl AGT -Nw --- -Ma 0 -Md 0 -Ms 0 -Mt 0 -Is 36.0 -Id 2.0 -It cbr -Il 512 -If 0 -Ii 462 -Iv 32 -Pn cbr -Pi 57 -Pf 0 -Po 0 
r -t 0.521142857 -Hs 36 -Hd -2 -Ni 36 -Nx 8.27 -Ny 7.02 -Nz 0.00 -Ne 2.999927 -Nl RTR -Nw --- -Ma 0 -Md 0 -Ms 0 -Mt 0 -Is 36.0 -Id 2.0 -It cbr -Il 512 -If 0 -Ii 462 -Iv 32 -Pn cbr -Pi 57 -Pf 0 -Po 0 
s -t 0.530285714 -Hs 36 -Hd -2 -Ni 36 -Nx 8.44 -Ny 7.16 -Nz 0.00 -Ne 2.999927 -Nl AGT -Nw --- -Ma 0 -Md 0 -Ms 0 -Mt 0 -Is 36.0 -Id 2.0 -It cbr -Il 512 -If 0 -Ii 464 -Iv 32 -Pn cbr -Pi 58 -Pf 0 -Po 0 
r -t 0.530285714 -Hs 36 -Hd -2 -Ni 36 -Nx 8.44 -Ny 7.16 -Nz 0.00 -Ne 2.999927 -Nl RTR -Nw --- -Ma 0 -Md 0 -Ms 0 -Mt 0 -Is 36.0 -Id 2.0 -It cbr -Il 512 -If 0 -Ii 464 -Iv 32 -Pn cbr -Pi 58 -Pf 0 -Po 0 
s -t 0.539428571 -Hs 36 -Hd -2 -Ni 36 -Nx 8.62 -Ny 7.31 -Nz 0.00 -Ne 2.999927 -Nl AGT -Nw --- -Ma 0 -Md 0 -Ms 0 -Mt 0 -Is 36.0 -Id 2.0 -It cbr -Il 512 -If 0 -Ii 466 -Iv 32 -Pn cbr -Pi 59 -Pf 0 -Po 0 
r -t 0.539428571 -Hs 36 -Hd -2 -Ni 36 -Nx 8.62 -Ny 7.31 -Nz 0.00 -Ne 2.999927 -Nl RTR -Nw --- -Ma 0 -Md 0 -Ms 0 -Mt 0 -Is 36.0 -Id 2.0 -It cbr -Il 512 -If 0 -Ii 466 -Iv 32 -Pn cbr -Pi 59 -Pf 0 -Po 0 
s -t 0.548571429 -Hs 36 -Hd -2 -Ni 36 -Nx 8.80 -Ny 7.45 -Nz 0.00 -Ne 2.999927 -Nl AGT -Nw --- -Ma 0 -Md 0 -Ms 0 -Mt 0 -Is 36.0 -Id 2.0 -It cbr -Il 512 -If 0 -Ii 468 -Iv 32 -Pn cbr -Pi 60 -Pf 0 -Po 0 
r -t 0.548571429 -Hs 36 -Hd -2 -Ni 36 -Nx 8.80 -Ny 7.45 -Nz 0.00 -Ne 2.999927 -Nl RTR -Nw --- -Ma 0 -Md 0 -Ms 0 -Mt 0 -Is 36.0 -Id 2.0 -It cbr -Il 512 -If 0 -Ii 468 -Iv 32 -Pn cbr -Pi 60 -Pf 0 -Po 0 
s -t 0.557714286 -Hs 36 -Hd -2 -Ni 36 -Nx 8.98 -Ny 7.59 -Nz 0.00 -Ne 2.999927 -Nl AGT -Nw --- -Ma 0 -Md 0 -Ms 0 -Mt 0 -Is 36.0 -Id 2.0 -It cbr -Il 512 -If 0 -Ii 531 -Iv 32 -Pn cbr -Pi 61 -Pf 0 -Po 0 
r -t 0.557714286 -Hs 36 -Hd -2 -Ni 36 -Nx 8.98 -Ny 7.59 -Nz 0.00 -Ne 2.999927 -Nl RTR -Nw --- -Ma 0 -Md 0 -Ms 0 -Mt 0 -Is 36.0 -Id 2.0 -It cbr -Il 512 -If 0 -Ii 531 -Iv 32 -Pn cbr -Pi 61 -Pf 0 -Po 0 
s -t 0.566857143 -Hs 36 -Hd -2 -Ni 36 -Nx 9.16 -Ny 7.74 -Nz 0.00 -Ne 2.999927 -Nl AGT -Nw --- -Ma 0 -Md 0 -Ms 0 -Mt 0 -Is 36.0 -Id 2.0 -It cbr -Il 512 -If 0 -Ii 533 -Iv 32 -Pn cbr -Pi 62 -Pf 0 -Po 0 
r -t 0.566857143 -Hs 36 -Hd -2 -Ni 36 -Nx 9.16 -Ny 7.74 -Nz 0.00 -Ne 2.999927 -Nl RTR -Nw --- -Ma 0 -Md 0 -Ms 0 -Mt 0 -Is 36.0 -Id 2.0 -It cbr -Il 512 -If 0 -Ii 533 -Iv 32 -Pn cbr -Pi 62 -Pf 0 -Po 0 
s -t 0.576000000 -Hs 36 -Hd -2 -Ni 36 -Nx 9.34 -Ny 7.88 -Nz 0.00 -Ne 2.999927 -Nl AGT -Nw --- -Ma 0 -Md 0 -Ms 0 -Mt 0 -Is 36.0 -Id 2.0 -It cbr -Il 512 -If 0 -Ii 535 -Iv 32 -Pn cbr -Pi 63 -Pf 0 -Po 0 
r -t 0.576000000 -Hs 36 -Hd -2 -Ni 36 -Nx 9.34 -Ny 7.88 -Nz 0.00 -Ne 2.999927 -Nl RTR -Nw --- -Ma 0 -Md 0 -Ms 0 -Mt 0 -Is 36.0 -Id 2.0 -It cbr -Il 512 -If 0 -Ii 535 -Iv 32 -Pn cbr -Pi 63 -Pf 0 -Po 0 
s -t 0.585142857 -Hs 36 -Hd -2 -Ni 36 -Nx 9.51 -Ny 8.02 -Nz 0.00 -Ne 2.999927 -Nl AGT -Nw --- -Ma 0 -Md 0 -Ms 0 -Mt 0 -Is 36.0 -Id 2.0 -It cbr -Il 512 -If 0 -Ii 537 -Iv 32 -Pn cbr -Pi 64 -Pf 0 -Po 0 
r -t 0.585142857 -Hs 36 -Hd -2 -Ni 36 -Nx 9.51 -Ny 8.02 -Nz 0.00 -Ne 2.999927 -Nl RTR -Nw --- -Ma 0 -Md 0 -Ms 0 -Mt 0 -Is 36.0 -Id 2.0 -It cbr -Il 512 -If 0 -Ii 537 -Iv 32 -Pn cbr -Pi 64 -Pf 0 -Po 0 
Ssb 0.58514 _36_ dropped 36 -> 2
d -t 0.585142857 -Hs 36 -Hd -2 -Ni 36 -Nx 9.51 -Ny 8.02 -Nz 0.00 -Ne 2.999927 -Nl RTR -Nw TOUT -Ma 0 -Md 0 -Ms 0 -Mt 0 -Is 36.0 -Id 2.0 -It cbr -Il 532 -If 0 -Ii 0 -Iv 32 -Pn cbr -Pi 0 -Pf 0 -Po 0 
s -t 0.594285714 -Hs 36 -Hd -2 -Ni 36 -Nx 9.69 -Ny 8.16 -Nz 0.00 -Ne 2.999927 -Nl AGT -Nw --- -Ma 0 -Md 0 -Ms 0 -Mt 0 -Is 36.0 -Id 2.0 -It cbr -Il 512 -If 0 -Ii 539 -Iv 32 -Pn cbr -Pi 65 -Pf 0 -Po 0 
r -t 0.594285714 -Hs 36 -Hd -2 -Ni 36 -Nx 9.69 -Ny 8.16 -Nz 0.00 -Ne 2.999927 -Nl RTR -Nw --- -Ma 0 -Md 0 -Ms 0 -Mt 0 -Is 36.0 -Id 2.0 -It cbr -Il 512 -If 0 -Ii 539 -Iv 32 -Pn cbr -Pi 65 -Pf 0 -Po 0 
Ssb 0.59429 _36_ dropped 36 -> 2
d -t 0.594285714 -Hs 36 -Hd -2 -Ni 36 -Nx 9.69 -Ny 8.16 -Nz 0.00 -Ne 2.999927 -Nl RTR -Nw TOUT -Ma 0 -Md 0 -Ms 0 -Mt 0 -Is 36.0 -Id 2.0 -It cbr -Il 532 -If 0 -Ii 2 -Iv 32 -Pn cbr -Pi 1 -Pf 0 -Po 0 