+ 0.1 1 2 cbr 1000 ------- 2 1.0 3.0 0 0
- 0.1 1 2 cbr 1000 ------- 2 1.0 3.0 0 0
+ 0.108 1 2 cbr 1000 ------- 2 1.0 3.0 1 1
- 0.108 1 2 cbr 1000 ------- 2 1.0 3.0 1 1
r 0.114 1 2 cbr 1000 ------- 2 1.0 3.0 0 0
+ 0.114 2 3 cbr 1000 ------- 2 1.0 3.0 0 0
- 0.114 2 3 cbr 1000 ------- 2 1.0 3.0 0 0
+ 0.116 1 2 cbr 1000 ------- 2 1.0 3.0 2 2
- 0.116 1 2 cbr 1000 ------- 2 1.0 3.0 2 2
r 0.122 1 2 cbr 1000 ------- 2 1.0 3.0 1 1
+ 0.122 2 3 cbr 1000 ------- 2 1.0 3.0 1 1
+ 0.124 1 2 cbr 1000 ------- 2 1.0 3.0 3 3
- 0.124 1 2 cbr 1000 ------- 2 1.0 3.0 3 3
r 0.13 1 2 cbr 1000 ------- 2 1.0 3.0 2 2
+ 0.13 2 3 cbr 1000 ------- 2 1.0 3.0 2 2
+ 0.132 1 2 cbr 1000 ------- 2 1.0 3.0 4 4
- 0.132 1 2 cbr 1000 ------- 2 1.0 3.0 4 4
r 0.138 1 2 cbr 1000 ------- 2 1.0 3.0 3 3
+ 0.138 2 3 cbr 1000 ------- 2 1.0 3.0 3 3
+ 0.14 1 2 cbr 1000 ------- 2 1.0 3.0 5 5
- 0.14 1 2 cbr 1000 ------- 2 1.0 3.0 5 5
- 0.140667 2 3 cbr 1000 ------- 2 1.0 3.0 1 1
r 0.146 1 2 cbr 1000 ------- 2 1.0 3.0 4 4
+ 0.146 2 3 cbr 1000 ------- 2 1.0 3.0 4 4
+ 0.148 1 2 cbr 1000 ------- 2 1.0 3.0 6 6
- 0.148 1 2 cbr 1000 ------- 2 1.0 3.0 6 6
r 0.154 1 2 cbr 1000 ------- 2 1.0 3.0 5 5
+ 0.154 2 3 cbr 1000 ------- 2 1.0 3.0 5 5
+ 0.156 1 2 cbr 1000 ------- 2 1.0 3.0 7 7
- 0.156 1 2 cbr 1000 ------- 2 1.0 3.0 7 7
r 0.162 1 2 cbr 1000 ------- 2 1.0 3.0 6 6
+ 0.162 2 3 cbr 1000 ------- 2 1.0 3.0 6 6
+ 0.164 1 2 cbr 1000 ------- 2 1.0 3.0 8 8
- 0.164 1 2 cbr 1000 ------- 2 1.0 3.0 8 8
- 0.167333 2 3 cbr 1000 ------- 2 1.0 3.0 2 2
r 0.17 1 2 cbr 1000 ------- 2 1.0 3.0 7 7
+ 0.17 2 3 cbr 1000 ------- 2 1.0 3.0 7 7
+ 0.172 1 2 cbr 1000 ------- 2 1.0 3.0 9 9
- 0.172 1 2 cbr 1000 ------- 2 1.0 3.0 9 9
r 0.178 1 2 cbr 1000 ------- 2 1.0 3.0 8 8
+ 0.178 2 3 cbr 1000 ------- 2 1.0 3.0 8 8
+ 0.18 1 2 cbr 1000 ------- 2 1.0 3.0 10 10
- 0.18 1 2 cbr 1000 ------- 2 1.0 3.0 10 10
r 0.186 1 2 cbr 1000 ------- 2 1.0 3.0 9 9
+ 0.186 2 3 cbr 1000 ------- 2 1.0 3.0 9 9
+ 0.188 1 2 cbr 1000 ------- 2 1.0 3.0 11 11
- 0.188 1 2 cbr 1000 ------- 2 1.0 3.0 11 11
- 0.194 2 3 cbr 1000 ------- 2 1.0 3.0 3 3
r 0.194 1 2 cbr 1000 ------- 2 1.0 3.0 10 10
+ 0.194 2 3 cbr 1000 ------- 2 1.0 3.0 10 10
+ 0.196 1 2 cbr 1000 ------- 2 1.0 3.0 12 12
- 0.196 1 2 cbr 1000 ------- 2 1.0 3.0 12 12
r 0.202 1 2 cbr 1000 ------- 2 1.0 3.0 11 11
+ 0.202 2 3 cbr 1000 ------- 2 1.0 3.0 11 11
+ 0.204 1 2 cbr 1000 ------- 2 1.0 3.0 13 13
- 0.204 1 2 cbr 1000 ------- 2 1.0 3.0 13 13
r 0.21 1 2 cbr 1000 ------- 2 1.0 3.0 12 12
+ 0.21 2 3 cbr 1000 ------- 2 1.0 3.0 12 12
+ 0.212 1 2 cbr 1000 ------- 2 1.0 3.0 14 14
- 0.212 1 2 cbr 1000 ------- 2 1.0 3.0 14 14
r 0.218 1 2 cbr 1000 ------- 2 1.0 3.0 13 13
+ 0.218 2 3 cbr 1000 ------- 2 1.0 3.0 13 13
+ 0.22 1 2 cbr 1000 ------- 2 1.0 3.0 15 15
- 0.22 1 2 cbr 1000 ------- 2 1.0 3.0 15 15
- 0.220667 2 3 cbr 1000 ------- 2 1.0 3.0 4 4
r 0.226 1 2 cbr 1000 ------- 2 1.0 3.0 14 14
+ 0.226 2 3 cbr 1000 ------- 2 1.0 3.0 14 14
+ 0.228 1 2 cbr 1000 ------- 2 1.0 3.0 16 16
- 0.228 1 2 cbr 1000 ------- 2 1.0 3.0 16 16
r 0.234 1 2 cbr 1000 ------- 2 1.0 3.0 15 15
+ 0.234 2 3 cbr 1000 ------- 2 1.0 3.0 15 15
+ 0.236 1 2 cbr 1000 ------- 2 1.0 3.0 17 17
- 0.236 1 2 cbr 1000 ------- 2 1.0 3.0 17 17
r 0.240667 2 3 cbr 1000 ------- 2 1.0 3.0 0 0
r 0.242 1 2 cbr 1000 ------- 2 1.0 3.0 16 16
+ 0.242 2 3 cbr 1000 ------- 2 1.0 3.0 16 16
+ 0.244 1 2 cbr 1000 ------- 2 1.0 3.0 18 18
- 0.244 1 2 cbr 1000 ------- 2 1.0 3.0 18 18
- 0.247333 2 3 cbr 1000 ------- 2 1.0 3.0 5 5
r 0.25 1 2 cbr 1000 ------- 2 1.0 3.0 17 17
+ 0.25 2 3 cbr 1000 ------- 2 1.0 3.0 17 17
+ 0.252 1 2 cbr 1000 ------- 2 1.0 3.0 19 19
- 0.252 1 2 cbr 1000 ------- 2 1.0 3.0 19 19
r 0.258 1 2 cbr 1000 ------- 2 1.0 3.0 18 18
+ 0.258 2 3 cbr 1000 ------- 2 1.0 3.0 18 18
+ 0.26 1 2 cbr 1000 ------- 2 1.0 3.0 20 20
- 0.26 1 2 cbr 1000 ------- 2 1.0 3.0 20 20
r 0.266 1 2 cbr 1000 ------- 2 1.0 3.0 19 19
+ 0.266 2 3 cbr 1000 ------- 2 1.0 3.0 19 19
r 0.267333 2 3 cbr 1000 ------- 2 1.0 3.0 1 1
+ 0.268 1 2 cbr 1000 ------- 2 1.0 3.0 21 21
- 0.268 1 2 cbr 1000 ------- 2 1.0 3.0 21 21
- 0.274 2 3 cbr 1000 ------- 2 1.0 3.0 6 6
r 0.274 1 2 cbr 1000 ------- 2 1.0 3.0 20 20
+ 0.274 2 3 cbr 1000 ------- 2 1.0 3.0 20 20
+ 0.276 1 2 cbr 1000 ------- 2 1.0 3.0 22 22
- 0.276 1 2 cbr 1000 ------- 2 1.0 3.0 22 22
r 0.282 1 2 cbr 1000 ------- 2 1.0 3.0 21 21
+ 0.282 2 3 cbr 1000 ------- 2 1.0 3.0 21 21
+ 0.284 1 2 cbr 1000 ------- 2 1.0 3.0 23 23
- 0.284 1 2 cbr 1000 ------- 2 1.0 3.0 23 23
r 0.29 1 2 cbr 1000 ------- 2 1.0 3.0 22 22
+ 0.29 2 3 cbr 1000 ------- 2 1.0 3.0 22 22
+ 0.292 1 2 cbr 1000 ------- 2 1.0 3.0 24 24
- 0.292 1 2 cbr 1000 ------- 2 1.0 3.0 24 24
r 0.294 2 3 cbr 1000 ------- 2 1.0 3.0 2 2
r 0.298 1 2 cbr 1000 ------- 2 1.0 3.0 23 23
+ 0.298 2 3 cbr 1000 ------- 2 1.0 3.0 23 23
+ 0.3 0 2 tcp 40 ------- 1 0.0 4.0 0 25
- 0.3 0 2 tcp 40 ------- 1 0.0 4.0 0 25
+ 0.3 1 2 cbr 1000 ------- 2 1.0 3.0 25 26
- 0.3 1 2 cbr 1000 ------- 2 1.0 3.0 25 26
- 0.300667 2 3 cbr 1000 ------- 2 1.0 3.0 7 7
r 0.306 1 2 cbr 1000 ------- 2 1.0 3.0 24 24
+ 0.306 2 3 cbr 1000 ------- 2 1.0 3.0 24 24
+ 0.308 1 2 cbr 1000 ------- 2 1.0 3.0 26 27
- 0.308 1 2 cbr 1000 ------- 2 1.0 3.0 26 27
r 0.31016 0 2 tcp 40 ------- 1 0.0 4.0 0 25
+ 0.31016 2 3 tcp 40 ------- 1 0.0 4.0 0 25
r 0.314 1 2 cbr 1000 ------- 2 1.0 3.0 25 26
+ 0.314 2 3 cbr 1000 ------- 2 1.0 3.0 25 26
+ 0.316 1 2 cbr 1000 ------- 2 1.0 3.0 27 28
- 0.316 1 2 cbr 1000 ------- 2 1.0 3.0 27 28
r 0.320667 2 3 cbr 1000 ------- 2 1.0 3.0 3 3
r 0.322 1 2 cbr 1000 ------- 2 1.0 3.0 26 27
+ 0.322 2 3 cbr 1000 ------- 2 1.0 3.0 26 27
+ 0.324 1 2 cbr 1000 ------- 2 1.0 3.0 28 29
- 0.324 1 2 cbr 1000 ------- 2 1.0 3.0 28 29
- 0.327333 2 3 cbr 1000 ------- 2 1.0 3.0 8 8
r 0.33 1 2 cbr 1000 ------- 2 1.0 3.0 27 28
+ 0.33 2 3 cbr 1000 ------- 2 1.0 3.0 27 28
+ 0.332 1 2 cbr 1000 ------- 2 1.0 3.0 29 30
- 0.332 1 2 cbr 1000 ------- 2 1.0 3.0 29 30
r 0.338 1 2 cbr 1000 ------- 2 1.0 3.0 28 29
+ 0.338 2 3 cbr 1000 ------- 2 1.0 3.0 28 29
+ 0.34 1 2 cbr 1000 ------- 2 1.0 3.0 30 31
- 0.34 1 2 cbr 1000 ------- 2 1.0 3.0 30 31
r 0.346 1 2 cbr 1000 ------- 2 1.0 3.0 29 30
+ 0.346 2 3 cbr 1000 ------- 2 1.0 3.0 29 30
r 0.347333 2 3 cbr 1000 ------- 2 1.0 3.0 4 4
+ 0.348 1 2 cbr 1000 ------- 2 1.0 3.0 31 32
- 0.348 1 2 cbr 1000 ------- 2 1.0 3.0 31 32
- 0.354 2 3 cbr 1000 ------- 2 1.0 3.0 9 9
r 0.354 1 2 cbr 1000 ------- 2 1.0 3.0 30 31
+ 0.354 2 3 cbr 1000 ------- 2 1.0 3.0 30 31
+ 0.356 1 2 cbr 1000 ------- 2 1.0 3.0 32 33
- 0.356 1 2 cbr 1000 ------- 2 1.0 3.0 32 33
r 0.362 1 2 cbr 1000 ------- 2 1.0 3.0 31 32
+ 0.362 2 3 cbr 1000 ------- 2 1.0 3.0 31 32
+ 0.364 1 2 cbr 1000 ------- 2 1.0 3.0 33 34
- 0.364 1 2 cbr 1000 ------- 2 1.0 3.0 33 34
r 0.37 1 2 cbr 1000 ------- 2 1.0 3.0 32 33
+ 0.37 2 3 cbr 1000 ------- 2 1.0 3.0 32 33
+ 0.372 1 2 cbr 1000 ------- 2 1.0 3.0 34 35
- 0.372 1 2 cbr 1000 ------- 2 1.0 3.0 34 35
r 0.374 2 3 cbr 1000 ------- 2 1.0 3.0 5 5
r 0.378 1 2 cbr 1000 ------- 2 1.0 3.0 33 34
+ 0.378 2 3 cbr 1000 ------- 2 1.0 3.0 33 34
+ 0.38 1 2 cbr 1000 ------- 2 1.0 3.0 35 36
- 0.38 1 2 cbr 1000 ------- 2 1.0 3.0 35 36
- 0.380667 2 3 cbr 1000 ------- 2 1.0 3.0 10 10
r 0.386 1 2 cbr 1000 ------- 2 1.0 3.0 34 35
+ 0.386 2 3 cbr 1000 ------- 2 1.0 3.0 34 35
+ 0.388 1 2 cbr 1000 ------- 2 1.0 3.0 36 37
- 0.388 1 2 cbr 1000 ------- 2 1.0 3.0 36 37
r 0.394 1 2 cbr 1000 ------- 2 1.0 3.0 35 36
+ 0.394 2 3 cbr 1000 ------- 2 1.0 3.0 35 36
+ 0.396 1 2 cbr 1000 ------- 2 1.0 3.0 37 38
- 0.396 1 2 cbr 1000 ------- 2 1.0 3.0 37 38
r 0.400667 2 3 cbr 1000 ------- 2 1.0 3.0 6 6
r 0.402 1 2 cbr 1000 ------- 2 1.0 3.0 36 37
+ 0.402 2 3 cbr 1000 ------- 2 1.0 3.0 36 37
+ 0.404 1 2 cbr 1000 ------- 2 1.0 3.0 38 39
- 0.404 1 2 cbr 1000 ------- 2 1.0 3.0 38 39
- 0.407333 2 3 cbr 1000 ------- 2 1.0 3.0 11 11
r 0.41 1 2 cbr 1000 ------- 2 1.0 3.0 37 38
+ 0.41 2 3 cbr 1000 ------- 2 1.0 3.0 37 38
+ 0.412 1 2 cbr 1000 ------- 2 1.0 3.0 39 40
- 0.412 1 2 cbr 1000 ------- 2 1.0 3.0 39 40
r 0.418 1 2 cbr 1000 ------- 2 1.0 3.0 38 39
+ 0.418 2 3 cbr 1000 ------- 2 1.0 3.0 38 39
+ 0.42 1 2 cbr 1000 ------- 2 1.0 3.0 40 41
- 0.42 1 2 cbr 1000 ------- 2 1.0 3.0 40 41
r 0.426 1 2 cbr 1000 ------- 2 1.0 3.0 39 40
+ 0.426 2 3 cbr 1000 ------- 2 1.0 3.0 39 40
r 0.427333 2 3 cbr 1000 ------- 2 1.0 3.0 7 7
+ 0.428 1 2 cbr 1000 ------- 2 1.0 3.0 41 42
- 0.428 1 2 cbr 1000 ------- 2 1.0 3.0 41 42
- 0.434 2 3 cbr 1000 ------- 2 1.0 3.0 12 12
r 0.434 1 2 cbr 1000 ------- 2 1.0 3.0 40 41
+ 0.434 2 3 cbr 1000 ------- 2 1.0 3.0 40 41
+ 0.436 1 2 cbr 1000 ------- 2 1.0 3.0 42 43
- 0.436 1 2 cbr 1000 ------- 2 1.0 3.0 42 43
r 0.442 1 2 cbr 1000 ------- 2 1.0 3.0 41 42
+ 0.442 2 3 cbr 1000 ------- 2 1.0 3.0 41 42
+ 0.444 1 2 cbr 1000 ------- 2 1.0 3.0 43 44
- 0.444 1 2 cbr 1000 ------- 2 1.0 3.0 43 44
r 0.45 1 2 cbr 1000 ------- 2 1.0 3.0 42 43
+ 0.45 2 3 cbr 1000 ------- 2 1.0 3.0 42 43
+ 0.452 1 2 cbr 1000 ------- 2 1.0 3.0 44 45
- 0.452 1 2 cbr 1000 ------- 2 1.0 3.0 44 45
r 0.454 2 3 cbr 1000 ------- 2 1.0 3.0 8 8
r 0.458 1 2 cbr 1000 ------- 2 1.0 3.0 43 44
+ 0.458 2 3 cbr 1000 ------- 2 1.0 3.0 43 44
+ 0.46 1 2 cbr 1000 ------- 2 1.0 3.0 45 46
- 0.46 1 2 cbr 1000 ------- 2 1.0 3.0 45 46
- 0.460667 2 3 cbr 1000 ------- 2 1.0 3.0 13 13
r 0.466 1 2 cbr 1000 ------- 2 1.0 3.0 44 45
+ 0.466 2 3 cbr 1000 ------- 2 1.0 3.0 44 45
+ 0.468 1 2 cbr 1000 ------- 2 1.0 3.0 46 47
- 0.468 1 2 cbr 1000 ------- 2 1.0 3.0 46 47
r 0.474 1 2 cbr 1000 ------- 2 1.0 3.0 45 46
+ 0.474 2 3 cbr 1000 ------- 2 1.0 3.0 45 46
+ 0.476 1 2 cbr 1000 ------- 2 1.0 3.0 47 48
- 0.476 1 2 cbr 1000 ------- 2 1.0 3.0 47 48
r 0.480667 2 3 cbr 1000 ------- 2 1.0 3.0 9 9
r 0.482 1 2 cbr 1000 ------- 2 1.0 3.0 46 47
+ 0.482 2 3 cbr 1000 ------- 2 1.0 3.0 46 47
+ 0.484 1 2 cbr 1000 ------- 2 1.0 3.0 48 49
- 0.484 1 2 cbr 1000 ------- 2 1.0 3.0 48 49
- 0.487333 2 3 cbr 1000 ------- 2 1.0 3.0 14 14
r 0.49 1 2 cbr 1000 ------- 2 1.0 3.0 47 48
+ 0.49 2 3 cbr 1000 ------- 2 1.0 3.0 47 48
+ 0.492 1 2 cbr 1000 ------- 2 1.0 3.0 49 50
- 0.492 1 2 cbr 1000 ------- 2 1.0 3.0 49 50
r 0.498 1 2 cbr 1000 ------- 2 1.0 3.0 48 49
+ 0.498 2 3 cbr 1000 ------- 2 1.0 3.0 48 49
+ 0.5 1 2 cbr 1000 ------- 2 1.0 3.0 50 51
- 0.5 1 2 cbr 1000 ------- 2 1.0 3.0 50 51
r 0.506 1 2 cbr 1000 ------- 2 1.0 3.0 49 50
+ 0.506 2 3 cbr 1000 ------- 2 1.0 3.0 49 50
r 0.507333 2 3 cbr 1000 ------- 2 1.0 3.0 10 10
+ 0.508 1 2 cbr 1000 ------- 2 1.0 3.0 51 52
- 0.508 1 2 cbr 1000 ------- 2 1.0 3.0 51 52
- 0.514 2 3 cbr 1000 ------- 2 1.0 3.0 15 15
r 0.514 1 2 cbr 1000 ------- 2 1.0 3.0 50 51
+ 0.514 2 3 cbr 1000 ------- 2 1.0 3.0 50 51
+ 0.516 1 2 cbr 1000 ------- 2 1.0 3.0 52 53
- 0.516 1 2 cbr 1000 ------- 2 1.0 3.0 52 53
r 0.522 1 2 cbr 1000 ------- 2 1.0 3.0 51 52
+ 0.522 2 3 cbr 1000 ------- 2 1.0 3.0 51 52
+ 0.524 1 2 cbr 1000 ------- 2 1.0 3.0 53 54
- 0.524 1 2 cbr 1000 ------- 2 1.0 3.0 53 54
r 0.53 1 2 cbr 1000 ------- 2 1.0 3.0 52 53
+ 0.53 2 3 cbr 1000 ------- 2 1.0 3.0 52 53
+ 0.532 1 2 cbr 1000 ------- 2 1.0 3.0 54 55
- 0.532 1 2 cbr 1000 ------- 2 1.0 3.0 54 55
r 0.534 2 3 cbr 1000 ------- 2 1.0 3.0 11 11
r 0.538 1 2 cbr 1000 ------- 2 1.0 3.0 53 54
+ 0.538 2 3 cbr 1000 ------- 2 1.0 3.0 53 54
+ 0.54 1 2 cbr 1000 ------- 2 1.0 3.0 55 56
- 0.54 1 2 cbr 1000 ------- 2 1.0 3.0 55 56
- 0.540667 2 3 cbr 1000 ------- 2 1.0 3.0 16 16
r 0.546 1 2 cbr 1000 ------- 2 1.0 3.0 54 55
+ 0.546 2 3 cbr 1000 ------- 2 1.0 3.0 54 55
+ 0.548 1 2 cbr 1000 ------- 2 1.0 3.0 56 57
- 0.548 1 2 cbr 1000 ------- 2 1.0 3.0 56 57
r 0.554 1 2 cbr 1000 ------- 2 1.0 3.0 55 56
+ 0.554 2 3 cbr 1000 ------- 2 1.0 3.0 55 56
+ 0.556 1 2 cbr 1000 ------- 2 1.0 3.0 57 58
- 0.556 1 2 cbr 1000 ------- 2 1.0 3.0 57 58
r 0.560667 2 3 cbr 1000 ------- 2 1.0 3.0 12 12
r 0.562 1 2 cbr 1000 ------- 2 1.0 3.0 56 57
+ 0.562 2 3 cbr 1000 ------- 2 1.0 3.0 56 57
+ 0.564 1 2 cbr 1000 ------- 2 1.0 3.0 58 59
- 0.564 1 2 cbr 1000 ------- 2 1.0 3.0 58 59
- 0.567333 2 3 cbr 1000 ------- 2 1.0 3.0 17 17
r 0.57 1 2 cbr 1000 ------- 2 1.0 3.0 57 58
+ 0.57 2 3 cbr 1000 ------- 2 1.0 3.0 57 58
+ 0.572 1 2 cbr 1000 ------- 2 1.0 3.0 59 60
- 0.572 1 2 cbr 1000 ------- 2 1.0 3.0 59 60
r 0.578 1 2 cbr 1000 ------- 2 1.0 3.0 58 59
+ 0.578 2 3 cbr 1000 ------- 2 1.0 3.0 58 59
+ 0.58 1 2 cbr 1000 ------- 2 1.0 3.0 60 61
- 0.58 1 2 cbr 1000 ------- 2 1.0 3.0 60 61
r 0.586 1 2 cbr 1000 ------- 2 1.0 3.0 59 60
+ 0.586 2 3 cbr 1000 ------- 2 1.0 3.0 59 60
r 0.587333 2 3 cbr 1000 ------- 2 1.0 3.0 13 13
+ 0.588 1 2 cbr 1000 ------- 2 1.0 3.0 61 62
- 0.588 1 2 cbr 1000 ------- 2 1.0 3.0 61 62
- 0.594 2 3 cbr 1000 ------- 2 1.0 3.0 18 18
r 0.594 1 2 cbr 1000 ------- 2 1.0 3.0 60 61
+ 0.594 2 3 cbr 1000 ------- 2 1.0 3.0 60 61
+ 0.596 1 2 cbr 1000 ------- 2 1.0 3.0 62 63
- 0.596 1 2 cbr 1000 ------- 2 1.0 3.0 62 63
r 0.602 1 2 cbr 1000 ------- 2 1.0 3.0 61 62
+ 0.602 2 3 cbr 1000 ------- 2 1.0 3.0 61 62
+ 0.604 1 2 cbr 1000 ------- 2 1.0 3.0 63 64
- 0.604 1 2 cbr 1000 ------- 2 1.0 3.0 63 64
r 0.61 1 2 cbr 1000 ------- 2 1.0 3.0 62 63
+ 0.61 2 3 cbr 1000 ------- 2 1.0 3.0 62 63
+ 0.612 1 2 cbr 1000 ------- 2 1.0 3.0 64 65
- 0.612 1 2 cbr 1000 ------- 2 1.0 3.0 64 65
r 0.614 2 3 cbr 1000 ------- 2 1.0 3.0 14 14
r 0.618 1 2 cbr 1000 ------- 2 1.0 3.0 63 64
+ 0.618 2 3 cbr 1000 ------- 2 1.0 3.0 63 64
+ 0.62 1 2 cbr 1000 ------- 2 1.0 3.0 65 66
- 0.62 1 2 cbr 1000 ------- 2 1.0 3.0 65 66
- 0.620667 2 3 cbr 1000 ------- 2 1.0 3.0 19 19
r 0.626 1 2 cbr 1000 ------- 2 1.0 3.0 64 65
+ 0.626 2 3 cbr 1000 ------- 2 1.0 3.0 64 65
+ 0.628 1 2 cbr 1000 ------- 2 1.0 3.0 66 67
- 0.628 1 2 cbr 1000 ------- 2 1.0 3.0 66 67
r 0.634 1 2 cbr 1000 ------- 2 1.0 3.0 65 66
+ 0.634 2 3 cbr 1000 ------- 2 1.0 3.0 65 66
+ 0.636 1 2 cbr 1000 ------- 2 1.0 3.0 67 68
- 0.636 1 2 cbr 1000 ------- 2 1.0 3.0 67 68
r 0.640667 2 3 cbr 1000 ------- 2 1.0 3.0 15 15
r 0.642 1 2 cbr 1000 ------- 2 1.0 3.0 66 67
+ 0.642 2 3 cbr 1000 ------- 2 1.0 3.0 66 67
+ 0.644 1 2 cbr 1000 ------- 2 1.0 3.0 68 69
- 0.644 1 2 cbr 1000 ------- 2 1.0 3.0 68 69
- 0.647333 2 3 cbr 1000 ------- 2 1.0 3.0 20 20
r 0.65 1 2 cbr 1000 ------- 2 1.0 3.0 67 68
+ 0.65 2 3 cbr 1000 ------- 2 1.0 3.0 67 68
+ 0.652 1 2 cbr 1000 ------- 2 1.0 3.0 69 70
- 0.652 1 2 cbr 1000 ------- 2 1.0 3.0 69 70
r 0.658 1 2 cbr 1000 ------- 2 1.0 3.0 68 69
+ 0.658 2 3 cbr 1000 ------- 2 1.0 3.0 68 69
+ 0.66 1 2 cbr 1000 ------- 2 1.0 3.0 70 71
- 0.66 1 2 cbr 1000 ------- 2 1.0 3.0 70 71
r 0.666 1 2 cbr 1000 ------- 2 1.0 3.0 69 70
+ 0.666 2 3 cbr 1000 ------- 2 1.0 3.0 69 70
d 0.666 2 3 cbr 1000 ------- 2 1.0 3.0 69 70
r 0.667333 2 3 cbr 1000 ------- 2 1.0 3.0 16 16
+ 0.668 1 2 cbr 1000 ------- 2 1.0 3.0 71 72
- 0.668 1 2 cbr 1000 ------- 2 1.0 3.0 71 72
- 0.674 2 3 cbr 1000 ------- 2 1.0 3.0 21 21
r 0.674 1 2 cbr 1000 ------- 2 1.0 3.0 70 71
+ 0.674 2 3 cbr 1000 ------- 2 1.0 3.0 70 71
+ 0.676 1 2 cbr 1000 ------- 2 1.0 3.0 72 73
- 0.676 1 2 cbr 1000 ------- 2 1.0 3.0 72 73
r 0.682 1 2 cbr 1000 ------- 2 1.0 3.0 71 72
+ 0.682 2 3 cbr 1000 ------- 2 1.0 3.0 71 72
d 0.682 2 3 cbr 1000 ------- 2 1.0 3.0 71 72
+ 0.684 1 2 cbr 1000 ------- 2 1.0 3.0 73 74
- 0.684 1 2 cbr 1000 ------- 2 1.0 3.0 73 74
r 0.69 1 2 cbr 1000 ------- 2 1.0 3.0 72 73
+ 0.69 2 3 cbr 1000 ------- 2 1.0 3.0 72 73
d 0.69 2 3 cbr 1000 ------- 2 1.0 3.0 72 73
+ 0.692 1 2 cbr 1000 ------- 2 1.0 3.0 74 75
- 0.692 1 2 cbr 1000 ------- 2 1.0 3.0 74 75
r 0.694 2 3 cbr 1000 ------- 2 1.0 3.0 17 17
r 0.698 1 2 cbr 1000 ------- 2 1.0 3.0 73 74
+ 0.698 2 3 cbr 1000 ------- 2 1.0 3.0 73 74
d 0.698 2 3 cbr 1000 ------- 2 1.0 3.0 73 74
+ 0.7 1 2 cbr 1000 ------- 2 1.0 3.0 75 76
- 0.7 1 2 cbr 1000 ------- 2 1.0 3.0 75 76
- 0.700667 2 3 cbr 1000 ------- 2 1.0 3.0 22 22
r 0.706 1 2 cbr 1000 ------- 2 1.0 3.0 74 75
+ 0.706 2 3 cbr 1000 ------- 2 1.0 3.0 74 75
+ 0.708 1 2 cbr 1000 ------- 2 1.0 3.0 76 77
- 0.708 1 2 cbr 1000 ------- 2 1.0 3.0 76 77
r 0.714 1 2 cbr 1000 ------- 2 1.0 3.0 75 76
+ 0.714 2 3 cbr 1000 ------- 2 1.0 3.0 75 76
d 0.714 2 3 cbr 1000 ------- 2 1.0 3.0 75 76
+ 0.716 1 2 cbr 1000 ------- 2 1.0 3.0 77 78
- 0.716 1 2 cbr 1000 ------- 2 1.0 3.0 77 78
r 0.720667 2 3 cbr 1000 ------- 2 1.0 3.0 18 18
r 0.722 1 2 cbr 1000 ------- 2 1.0 3.0 76 77
+ 0.722 2 3 cbr 1000 ------- 2 1.0 3.0 76 77
d 0.722 2 3 cbr 1000 ------- 2 1.0 3.0 76 77
+ 0.724 1 2 cbr 1000 ------- 2 1.0 3.0 78 79
- 0.724 1 2 cbr 1000 ------- 2 1.0 3.0 78 79
- 0.727333 2 3 cbr 1000 ------- 2 1.0 3.0 23 23
r 0.73 1 2 cbr 1000 ------- 2 1.0 3.0 77 78
+ 0.73 2 3 cbr 1000 ------- 2 1.0 3.0 77 78
+ 0.732 1 2 cbr 1000 ------- 2 1.0 3.0 79 80
- 0.732 1 2 cbr 1000 ------- 2 1.0 3.0 79 80
r 0.738 1 2 cbr 1000 ------- 2 1.0 3.0 78 79
+ 0.738 2 3 cbr 1000 ------- 2 1.0 3.0 78 79
d 0.738 2 3 cbr 1000 ------- 2 1.0 3.0 78 79
+ 0.74 1 2 cbr 1000 ------- 2 1.0 3.0 80 81
- 0.74 1 2 cbr 1000 ------- 2 1.0 3.0 80 81
r 0.746 1 2 cbr 1000 ------- 2 1.0 3.0 79 80
+ 0.746 2 3 cbr 1000 ------- 2 1.0 3.0 79 80
d 0.746 2 3 cbr 1000 ------- 2 1.0 3.0 79 80
r 0.747333 2 3 cbr 1000 ------- 2 1.0 3.0 19 19
+ 0.748 1 2 cbr 1000 ------- 2 1.0 3.0 81 82
- 0.748 1 2 cbr 1000 ------- 2 1.0 3.0 81 82
- 0.754 2 3 cbr 1000 ------- 2 1.0 3.0 24 24
r 0.754 1 2 cbr 1000 ------- 2 1.0 3.0 80 81
+ 0.754 2 3 cbr 1000 ------- 2 1.0 3.0 80 81
+ 0.756 1 2 cbr 1000 ------- 2 1.0 3.0 82 83
- 0.756 1 2 cbr 1000 ------- 2 1.0 3.0 82 83
r 0.762 1 2 cbr 1000 ------- 2 1.0 3.0 81 82
+ 0.762 2 3 cbr 1000 ------- 2 1.0 3.0 81 82
d 0.762 2 3 cbr 1000 ------- 2 1.0 3.0 81 82
+ 0.764 1 2 cbr 1000 ------- 2 1.0 3.0 83 84
- 0.764 1 2 cbr 1000 ------- 2 1.0 3.0 83 84
r 0.77 1 2 cbr 1000 ------- 2 1.0 3.0 82 83
+ 0.77 2 3 cbr 1000 ------- 2 1.0 3.0 82 83
d 0.77 2 3 cbr 1000 ------- 2 1.0 3.0 82 83
+ 0.772 1 2 cbr 1000 ------- 2 1.0 3.0 84 85
- 0.772 1 2 cbr 1000 ------- 2 1.0 3.0 84 85
r 0.774 2 3 cbr 1000 ------- 2 1.0 3.0 20 20
r 0.778 1 2 cbr 1000 ------- 2 1.0 3.0 83 84
+ 0.778 2 3 cbr 1000 ------- 2 1.0 3.0 83 84
d 0.778 2 3 cbr 1000 ------- 2 1.0 3.0 83 84
+ 0.78 1 2 cbr 1000 ------- 2 1.0 3.0 85 86
- 0.78 1 2 cbr 1000 ------- 2 1.0 3.0 85 86
- 0.780667 2 3 tcp 40 ------- 1 0.0 4.0 0 25
- 0.781733 2 3 cbr 1000 ------- 2 1.0 3.0 25 26
r 0.786 1 2 cbr 1000 ------- 2 1.0 3.0 84 85
+ 0.786 2 3 cbr 1000 ------- 2 1.0 3.0 84 85
+ 0.788 1 2 cbr 1000 ------- 2 1.0 3.0 86 87
- 0.788 1 2 cbr 1000 ------- 2 1.0 3.0 86 87
r 0.794 1 2 cbr 1000 ------- 2 1.0 3.0 85 86
+ 0.794 2 3 cbr 1000 ------- 2 1.0 3.0 85 86
+ 0.796 1 2 cbr 1000 ------- 2 1.0 3.0 87 88
- 0.796 1 2 cbr 1000 ------- 2 1.0 3.0 87 88
r 0.800667 2 3 cbr 1000 ------- 2 1.0 3.0 21 21
r 0.802 1 2 cbr 1000 ------- 2 1.0 3.0 86 87
+ 0.802 2 3 cbr 1000 ------- 2 1.0 3.0 86 87
d 0.802 2 3 cbr 1000 ------- 2 1.0 3.0 86 87
+ 0.804 1 2 cbr 1000 ------- 2 1.0 3.0 88 89
- 0.804 1 2 cbr 1000 ------- 2 1.0 3.0 88 89
- 0.8084 2 3 cbr 1000 ------- 2 1.0 3.0 26 27
r 0.81 1 2 cbr 1000 ------- 2 1.0 3.0 87 88
+ 0.81 2 3 cbr 1000 ------- 2 1.0 3.0 87 88
+ 0.812 1 2 cbr 1000 ------- 2 1.0 3.0 89 90
- 0.812 1 2 cbr 1000 ------- 2 1.0 3.0 89 90
r 0.818 1 2 cbr 1000 ------- 2 1.0 3.0 88 89
+ 0.818 2 3 cbr 1000 ------- 2 1.0 3.0 88 89
d 0.818 2 3 cbr 1000 ------- 2 1.0 3.0 88 89
+ 0.82 1 2 cbr 1000 ------- 2 1.0 3.0 90 91
- 0.82 1 2 cbr 1000 ------- 2 1.0 3.0 90 91
r 0.826 1 2 cbr 1000 ------- 2 1.0 3.0 89 90
+ 0.826 2 3 cbr 1000 ------- 2 1.0 3.0 89 90
d 0.826 2 3 cbr 1000 ------- 2 1.0 3.0 89 90
r 0.827333 2 3 cbr 1000 ------- 2 1.0 3.0 22 22
+ 0.828 1 2 cbr 1000 ------- 2 1.0 3.0 91 92
- 0.828 1 2 cbr 1000 ------- 2 1.0 3.0 91 92
r 0.834 1 2 cbr 1000 ------- 2 1.0 3.0 90 91
+ 0.834 2 3 cbr 1000 ------- 2 1.0 3.0 90 91
d 0.834 2 3 cbr 1000 ------- 2 1.0 3.0 90 91
- 0.835067 2 3 cbr 1000 ------- 2 1.0 3.0 27 28
+ 0.836 1 2 cbr 1000 ------- 2 1.0 3.0 92 93
- 0.836 1 2 cbr 1000 ------- 2 1.0 3.0 92 93
r 0.842 1 2 cbr 1000 ------- 2 1.0 3.0 91 92
+ 0.842 2 3 cbr 1000 ------- 2 1.0 3.0 91 92
+ 0.844 1 2 cbr 1000 ------- 2 1.0 3.0 93 94
- 0.844 1 2 cbr 1000 ------- 2 1.0 3.0 93 94
r 0.85 1 2 cbr 1000 ------- 2 1.0 3.0 92 93
+ 0.85 2 3 cbr 1000 ------- 2 1.0 3.0 92 93
d 0.85 2 3 cbr 1000 ------- 2 1.0 3.0 92 93
+ 0.852 1 2 cbr 1000 ------- 2 1.0 3.0 94 95
- 0.852 1 2 cbr 1000 ------- 2 1.0 3.0 94 95
r 0.854 2 3 cbr 1000 ------- 2 1.0 3.0 23 23
r 0.858 1 2 cbr 1000 ------- 2 1.0 3.0 93 94
+ 0.858 2 3 cbr 1000 ------- 2 1.0 3.0 93 94
d 0.858 2 3 cbr 1000 ------- 2 1.0 3.0 93 94
+ 0.86 1 2 cbr 1000 ------- 2 1.0 3.0 95 96
- 0.86 1 2 cbr 1000 ------- 2 1.0 3.0 95 96
- 0.861733 2 3 cbr 1000 ------- 2 1.0 3.0 28 29
r 0.866 1 2 cbr 1000 ------- 2 1.0 3.0 94 95
+ 0.866 2 3 cbr 1000 ------- 2 1.0 3.0 94 95
+ 0.868 1 2 cbr 1000 ------- 2 1.0 3.0 96 97
- 0.868 1 2 cbr 1000 ------- 2 1.0 3.0 96 97
r 0.874 1 2 cbr 1000 ------- 2 1.0 3.0 95 96
+ 0.874 2 3 cbr 1000 ------- 2 1.0 3.0 95 96
d 0.874 2 3 cbr 1000 ------- 2 1.0 3.0 95 96
+ 0.876 1 2 cbr 1000 ------- 2 1.0 3.0 97 98
- 0.876 1 2 cbr 1000 ------- 2 1.0 3.0 97 98
r 0.880667 2 3 cbr 1000 ------- 2 1.0 3.0 24 24
r 0.881733 2 3 tcp 40 ------- 1 0.0 4.0 0 25
+ 0.881733 3 4 tcp 40 ------- 1 0.0 4.0 0 25
- 0.881733 3 4 tcp 40 ------- 1 0.0 4.0 0 25
r 0.882 1 2 cbr 1000 ------- 2 1.0 3.0 96 97
+ 0.882 2 3 cbr 1000 ------- 2 1.0 3.0 96 97
d 0.882 2 3 cbr 1000 ------- 2 1.0 3.0 96 97
+ 0.884 1 2 cbr 1000 ------- 2 1.0 3.0 98 99
- 0.884 1 2 cbr 1000 ------- 2 1.0 3.0 98 99
- 0.8884 2 3 cbr 1000 ------- 2 1.0 3.0 29 30
r 0.89 1 2 cbr 1000 ------- 2 1.0 3.0 97 98
+ 0.89 2 3 cbr 1000 ------- 2 1.0 3.0 97 98
+ 0.892 1 2 cbr 1000 ------- 2 1.0 3.0 99 100
- 0.892 1 2 cbr 1000 ------- 2 1.0 3.0 99 100
r 0.898 1 2 cbr 1000 ------- 2 1.0 3.0 98 99
+ 0.898 2 3 cbr 1000 ------- 2 1.0 3.0 98 99
d 0.898 2 3 cbr 1000 ------- 2 1.0 3.0 98 99
+ 0.9 1 2 cbr 1000 ------- 2 1.0 3.0 100 101
- 0.9 1 2 cbr 1000 ------- 2 1.0 3.0 100 101
r 0.906 1 2 cbr 1000 ------- 2 1.0 3.0 99 100
+ 0.906 2 3 cbr 1000 ------- 2 1.0 3.0 99 100
d 0.906 2 3 cbr 1000 ------- 2 1.0 3.0 99 100
+ 0.908 1 2 cbr 1000 ------- 2 1.0 3.0 101 102
- 0.908 1 2 cbr 1000 ------- 2 1.0 3.0 101 102
r 0.9084 2 3 cbr 1000 ------- 2 1.0 3.0 25 26
r 0.914 1 2 cbr 1000 ------- 2 1.0 3.0 100 101
+ 0.914 2 3 cbr 1000 ------- 2 1.0 3.0 100 101
d 0.914 2 3 cbr 1000 ------- 2 1.0 3.0 100 101
- 0.915067 2 3 cbr 1000 ------- 2 1.0 3.0 30 31
+ 0.916 1 2 cbr 1000 ------- 2 1.0 3.0 102 103
- 0.916 1 2 cbr 1000 ------- 2 1.0 3.0 102 103
r 0.922 1 2 cbr 1000 ------- 2 1.0 3.0 101 102
+ 0.922 2 3 cbr 1000 ------- 2 1.0 3.0 101 102
r 0.922373 3 4 tcp 40 ------- 1 0.0 4.0 0 25
+ 0.922373 4 3 ack 40 ------- 1 4.0 0.0 0 104
- 0.922373 4 3 ack 40 ------- 1 4.0 0.0 0 104
+ 0.924 1 2 cbr 1000 ------- 2 1.0 3.0 103 105
- 0.924 1 2 cbr 1000 ------- 2 1.0 3.0 103 105
r 0.93 1 2 cbr 1000 ------- 2 1.0 3.0 102 103
+ 0.93 2 3 cbr 1000 ------- 2 1.0 3.0 102 103
d 0.93 2 3 cbr 1000 ------- 2 1.0 3.0 102 103
+ 0.932 1 2 cbr 1000 ------- 2 1.0 3.0 104 106
- 0.932 1 2 cbr 1000 ------- 2 1.0 3.0 104 106
r 0.935067 2 3 cbr 1000 ------- 2 1.0 3.0 26 27
r 0.938 1 2 cbr 1000 ------- 2 1.0 3.0 103 105
+ 0.938 2 3 cbr 1000 ------- 2 1.0 3.0 103 105
d 0.938 2 3 cbr 1000 ------- 2 1.0 3.0 103 105
+ 0.94 1 2 cbr 1000 ------- 2 1.0 3.0 105 107
- 0.94 1 2 cbr 1000 ------- 2 1.0 3.0 105 107
- 0.941733 2 3 cbr 1000 ------- 2 1.0 3.0 31 32
r 0.946 1 2 cbr 1000 ------- 2 1.0 3.0 104 106
+ 0.946 2 3 cbr 1000 ------- 2 1.0 3.0 104 106
+ 0.948 1 2 cbr 1000 ------- 2 1.0 3.0 106 108
- 0.948 1 2 cbr 1000 ------- 2 1.0 3.0 106 108
r 0.954 1 2 cbr 1000 ------- 2 1.0 3.0 105 107
+ 0.954 2 3 cbr 1000 ------- 2 1.0 3.0 105 107
d 0.954 2 3 cbr 1000 ------- 2 1.0 3.0 105 107
+ 0.956 1 2 cbr 1000 ------- 2 1.0 3.0 107 109
- 0.956 1 2 cbr 1000 ------- 2 1.0 3.0 107 109
r 0.961733 2 3 cbr 1000 ------- 2 1.0 3.0 27 28
r 0.962 1 2 cbr 1000 ------- 2 1.0 3.0 106 108
+ 0.962 2 3 cbr 1000 ------- 2 1.0 3.0 106 108
d 0.962 2 3 cbr 1000 ------- 2 1.0 3.0 106 108
r 0.963013 4 3 ack 40 ------- 1 4.0 0.0 0 104
+ 0.963013 3 2 ack 40 ------- 1 4.0 0.0 0 104
- 0.963013 3 2 ack 40 ------- 1 4.0 0.0 0 104
+ 0.964 1 2 cbr 1000 ------- 2 1.0 3.0 108 110
- 0.964 1 2 cbr 1000 ------- 2 1.0 3.0 108 110
- 0.9684 2 3 cbr 1000 ------- 2 1.0 3.0 32 33
r 0.97 1 2 cbr 1000 ------- 2 1.0 3.0 107 109
+ 0.97 2 3 cbr 1000 ------- 2 1.0 3.0 107 109
+ 0.972 1 2 cbr 1000 ------- 2 1.0 3.0 109 111
- 0.972 1 2 cbr 1000 ------- 2 1.0 3.0 109 111
r 0.978 1 2 cbr 1000 ------- 2 1.0 3.0 108 110
+ 0.978 2 3 cbr 1000 ------- 2 1.0 3.0 108 110
d 0.978 2 3 cbr 1000 ------- 2 1.0 3.0 108 110
+ 0.98 1 2 cbr 1000 ------- 2 1.0 3.0 110 112
- 0.98 1 2 cbr 1000 ------- 2 1.0 3.0 110 112
r 0.986 1 2 cbr 1000 ------- 2 1.0 3.0 109 111
+ 0.986 2 3 cbr 1000 ------- 2 1.0 3.0 109 111
d 0.986 2 3 cbr 1000 ------- 2 1.0 3.0 109 111
+ 0.988 1 2 cbr 1000 ------- 2 1.0 3.0 111 113
- 0.988 1 2 cbr 1000 ------- 2 1.0 3.0 111 113
r 0.9884 2 3 cbr 1000 ------- 2 1.0 3.0 28 29
r 0.994 1 2 cbr 1000 ------- 2 1.0 3.0 110 112
+ 0.994 2 3 cbr 1000 ------- 2 1.0 3.0 110 112
d 0.994 2 3 cbr 1000 ------- 2 1.0 3.0 110 112
- 0.995067 2 3 cbr 1000 ------- 2 1.0 3.0 33 34
+ 0.996 1 2 cbr 1000 ------- 2 1.0 3.0 112 114
- 0.996 1 2 cbr 1000 ------- 2 1.0 3.0 112 114
r 1.002 1 2 cbr 1000 ------- 2 1.0 3.0 111 113
+ 1.002 2 3 cbr 1000 ------- 2 1.0 3.0 111 113
+ 1.004 1 2 cbr 1000 ------- 2 1.0 3.0 113 115
- 1.004 1 2 cbr 1000 ------- 2 1.0 3.0 113 115
r 1.01 1 2 cbr 1000 ------- 2 1.0 3.0 112 114
+ 1.01 2 3 cbr 1000 ------- 2 1.0 3.0 112 114
d 1.01 2 3 cbr 1000 ------- 2 1.0 3.0 112 114
+ 1.012 1 2 cbr 1000 ------- 2 1.0 3.0 114 116
- 1.012 1 2 cbr 1000 ------- 2 1.0 3.0 114 116
r 1.015067 2 3 cbr 1000 ------- 2 1.0 3.0 29 30
r 1.018 1 2 cbr 1000 ------- 2 1.0 3.0 113 115
+ 1.018 2 3 cbr 1000 ------- 2 1.0 3.0 113 115
d 1.018 2 3 cbr 1000 ------- 2 1.0 3.0 113 115
+ 1.02 1 2 cbr 1000 ------- 2 1.0 3.0 115 117
- 1.02 1 2 cbr 1000 ------- 2 1.0 3.0 115 117
- 1.021733 2 3 cbr 1000 ------- 2 1.0 3.0 34 35
r 1.026 1 2 cbr 1000 ------- 2 1.0 3.0 114 116
+ 1.026 2 3 cbr 1000 ------- 2 1.0 3.0 114 116
+ 1.028 1 2 cbr 1000 ------- 2 1.0 3.0 116 118
- 1.028 1 2 cbr 1000 ------- 2 1.0 3.0 116 118
r 1.034 1 2 cbr 1000 ------- 2 1.0 3.0 115 117
+ 1.034 2 3 cbr 1000 ------- 2 1.0 3.0 115 117
d 1.034 2 3 cbr 1000 ------- 2 1.0 3.0 115 117
+ 1.036 1 2 cbr 1000 ------- 2 1.0 3.0 117 119
- 1.036 1 2 cbr 1000 ------- 2 1.0 3.0 117 119
r 1.041733 2 3 cbr 1000 ------- 2 1.0 3.0 30 31
r 1.042 1 2 cbr 1000 ------- 2 1.0 3.0 116 118
+ 1.042 2 3 cbr 1000 ------- 2 1.0 3.0 116 118
d 1.042 2 3 cbr 1000 ------- 2 1.0 3.0 116 118
+ 1.044 1 2 cbr 1000 ------- 2 1.0 3.0 118 120
- 1.044 1 2 cbr 1000 ------- 2 1.0 3.0 118 120
- 1.0484 2 3 cbr 1000 ------- 2 1.0 3.0 35 36
r 1.05 1 2 cbr 1000 ------- 2 1.0 3.0 117 119
+ 1.05 2 3 cbr 1000 ------- 2 1.0 3.0 117 119
+ 1.052 1 2 cbr 1000 ------- 2 1.0 3.0 119 121
- 1.052 1 2 cbr 1000 ------- 2 1.0 3.0 119 121
r 1.058 1 2 cbr 1000 ------- 2 1.0 3.0 118 120
+ 1.058 2 3 cbr 1000 ------- 2 1.0 3.0 118 120
d 1.058 2 3 cbr 1000 ------- 2 1.0 3.0 118 120
+ 1.06 1 2 cbr 1000 ------- 2 1.0 3.0 120 122
- 1.06 1 2 cbr 1000 ------- 2 1.0 3.0 120 122
r 1.06408 3 2 ack 40 ------- 1 4.0 0.0 0 104
+ 1.06408 2 0 ack 40 ------- 1 4.0 0.0 0 104
- 1.06408 2 0 ack 40 ------- 1 4.0 0.0 0 104
r 1.066 1 2 cbr 1000 ------- 2 1.0 3.0 119 121
+ 1.066 2 3 cbr 1000 ------- 2 1.0 3.0 119 121
d 1.066 2 3 cbr 1000 ------- 2 1.0 3.0 119 121
+ 1.068 1 2 cbr 1000 ------- 2 1.0 3.0 121 123
- 1.068 1 2 cbr 1000 ------- 2 1.0 3.0 121 123
r 1.0684 2 3 cbr 1000 ------- 2 1.0 3.0 31 32
r 1.074 1 2 cbr 1000 ------- 2 1.0 3.0 120 122
+ 1.074 2 3 cbr 1000 ------- 2 1.0 3.0 120 122
d 1.074 2 3 cbr 1000 ------- 2 1.0 3.0 120 122
r 1.07424 2 0 ack 40 ------- 1 4.0 0.0 0 104
+ 1.07424 0 2 tcp 1040 ------- 1 0.0 4.0 1 124
- 1.07424 0 2 tcp 1040 ------- 1 0.0 4.0 1 124
+ 1.07424 0 2 tcp 1040 ------- 1 0.0 4.0 2 125
- 1.075067 2 3 cbr 1000 ------- 2 1.0 3.0 36 37
+ 1.076 1 2 cbr 1000 ------- 2 1.0 3.0 122 126
- 1.076 1 2 cbr 1000 ------- 2 1.0 3.0 122 126
- 1.0784 0 2 tcp 1040 ------- 1 0.0 4.0 2 125
r 1.082 1 2 cbr 1000 ------- 2 1.0 3.0 121 123
+ 1.082 2 3 cbr 1000 ------- 2 1.0 3.0 121 123
+ 1.084 1 2 cbr 1000 ------- 2 1.0 3.0 123 127
- 1.084 1 2 cbr 1000 ------- 2 1.0 3.0 123 127
r 1.0884 0 2 tcp 1040 ------- 1 0.0 4.0 1 124
+ 1.0884 2 3 tcp 1040 ------- 1 0.0 4.0 1 124
d 1.0884 2 3 tcp 1040 ------- 1 0.0 4.0 1 124
r 1.09 1 2 cbr 1000 ------- 2 1.0 3.0 122 126
+ 1.09 2 3 cbr 1000 ------- 2 1.0 3.0 122 126
d 1.09 2 3 cbr 1000 ------- 2 1.0 3.0 122 126
+ 1.092 1 2 cbr 1000 ------- 2 1.0 3.0 124 128
- 1.092 1 2 cbr 1000 ------- 2 1.0 3.0 124 128
r 1.09256 0 2 tcp 1040 ------- 1 0.0 4.0 2 125
+ 1.09256 2 3 tcp 1040 ------- 1 0.0 4.0 2 125
d 1.09256 2 3 tcp 1040 ------- 1 0.0 4.0 2 125
r 1.095067 2 3 cbr 1000 ------- 2 1.0 3.0 32 33
r 1.098 1 2 cbr 1000 ------- 2 1.0 3.0 123 127
+ 1.098 2 3 cbr 1000 ------- 2 1.0 3.0 123 127
d 1.098 2 3 cbr 1000 ------- 2 1.0 3.0 123 127
+ 1.1 1 2 cbr 1000 ------- 2 1.0 3.0 125 129
- 1.1 1 2 cbr 1000 ------- 2 1.0 3.0 125 129
- 1.101733 2 3 cbr 1000 ------- 2 1.0 3.0 37 38
r 1.106 1 2 cbr 1000 ------- 2 1.0 3.0 124 128
+ 1.106 2 3 cbr 1000 ------- 2 1.0 3.0 124 128
+ 1.108 1 2 cbr 1000 ------- 2 1.0 3.0 126 130
- 1.108 1 2 cbr 1000 ------- 2 1.0 3.0 126 130
r 1.114 1 2 cbr 1000 ------- 2 1.0 3.0 125 129
+ 1.114 2 3 cbr 1000 ------- 2 1.0 3.0 125 129
d 1.114 2 3 cbr 1000 ------- 2 1.0 3.0 125 129
+ 1.116 1 2 cbr 1000 ------- 2 1.0 3.0 127 131
- 1.116 1 2 cbr 1000 ------- 2 1.0 3.0 127 131
r 1.121733 2 3 cbr 1000 ------- 2 1.0 3.0 33 34
r 1.122 1 2 cbr 1000 ------- 2 1.0 3.0 126 130
+ 1.122 2 3 cbr 1000 ------- 2 1.0 3.0 126 130
d 1.122 2 3 cbr 1000 ------- 2 1.0 3.0 126 130
+ 1.124 1 2 cbr 1000 ------- 2 1.0 3.0 128 132
- 1.124 1 2 cbr 1000 ------- 2 1.0 3.0 128 132
- 1.1284 2 3 cbr 1000 ------- 2 1.0 3.0 38 39
r 1.13 1 2 cbr 1000 ------- 2 1.0 3.0 127 131
+ 1.13 2 3 cbr 1000 ------- 2 1.0 3.0 127 131
+ 1.132 1 2 cbr 1000 ------- 2 1.0 3.0 129 133
- 1.132 1 2 cbr 1000 ------- 2 1.0 3.0 129 133
r 1.138 1 2 cbr 1000 ------- 2 1.0 3.0 128 132
+ 1.138 2 3 cbr 1000 ------- 2 1.0 3.0 128 132
d 1.138 2 3 cbr 1000 ------- 2 1.0 3.0 128 132
+ 1.14 1 2 cbr 1000 ------- 2 1.0 3.0 130 134
- 1.14 1 2 cbr 1000 ------- 2 1.0 3.0 130 134