V -t * -v 1.0a5 -a 0
A -t * -n 1 -p 0 -o 0x7fffffff -c 30 -a 1
A -t * -h 1 -m 1073741823 -s 0
c -t * -i 1 -n Blue
n -t * -a 4 -s 4 -S UP -v circle -c black -i black
n -t * -a 0 -s 0 -S UP -v circle -c black -i black
n -t * -a 1 -s 1 -S UP -v circle -c black -i black
n -t * -a 2 -s 2 -S UP -v circle -c black -i black
n -t * -a 3 -s 3 -S UP -v circle -c black -i black
l -t * -s 0 -d 1 -S UP -r 1500000 -D 0.01 -c black -o left-up
l -t * -s 0 -d 2 -S UP -r 800000 -D 0.040000000000000001 -c black -o left-down
l -t * -s 0 -d 3 -S UP -r 1000000 -D 0.10000000000000001 -c black -o right-up
l -t * -s 0 -d 4 -S UP -r 500000 -D 0.029999999999999999 -c black -o right-down
v -t 0.3 -e sim_annotation 0.3 0.29999999999999999 1 join-group 1073741824
v -t 0.3 -e sim_annotation 0.3 0.29999999999999999 2 join-group 1073741824
v -t 0.3 -e sim_annotation 0.3 0.29999999999999999 3 join-group 1073741824
v -t 0.3 -e sim_annotation 0.3 0.29999999999999999 4 join-group 1073741824
+ -t 1 -s 0 -d 4 -p cbr -e 210 -c 1 -i 0 -a 1 -x {0.1 1073741824.0 0 ------- null}
- -t 1 -s 0 -d 4 -p cbr -e 210 -c 1 -i 0 -a 1 -x {0.1 1073741824.0 0 ------- null}
h -t 1 -s 0 -d 4 -p cbr -e 210 -c 1 -i 0 -a 1 -x {0.1 1073741824.0 -1 ------- null}
+ -t 1 -s 0 -d 1 -p cbr -e 210 -c 1 -i 0 -a 1 -x {0.1 1073741824.0 0 ------- null}
- -t 1 -s 0 -d 1 -p cbr -e 210 -c 1 -i 0 -a 1 -x {0.1 1073741824.0 0 ------- null}
h -t 1 -s 0 -d 1 -p cbr -e 210 -c 1 -i 0 -a 1 -x {0.1 1073741824.0 -1 ------- null}
+ -t 1 -s 0 -d 2 -p cbr -e 210 -c 1 -i 0 -a 1 -x {0.1 1073741824.0 0 ------- null}
- -t 1 -s 0 -d 2 -p cbr -e 210 -c 1 -i 0 -a 1 -x {0.1 1073741824.0 0 ------- null}
h -t 1 -s 0 -d 2 -p cbr -e 210 -c 1 -i 0 -a 1 -x {0.1 1073741824.0 -1 ------- null}
+ -t 1 -s 0 -d 3 -p cbr -e 210 -c 1 -i 0 -a 1 -x {0.1 1073741824.0 0 ------- null}
- -t 1 -s 0 -d 3 -p cbr -e 210 -c 1 -i 0 -a 1 -x {0.1 1073741824.0 0 ------- null}
h -t 1 -s 0 -d 3 -p cbr -e 210 -c 1 -i 0 -a 1 -x {0.1 1073741824.0 -1 ------- null}
+ -t 1.00375 -s 0 -d 4 -p cbr -e 210 -c 1 -i 1 -a 1 -x {0.1 1073741824.0 1 ------- null}
- -t 1.00375 -s 0 -d 4 -p cbr -e 210 -c 1 -i 1 -a 1 -x {0.1 1073741824.0 1 ------- null}
h -t 1.00375 -s 0 -d 4 -p cbr -e 210 -c 1 -i 1 -a 1 -x {0.1 1073741824.0 -1 ------- null}
+ -t 1.00375 -s 0 -d 1 -p cbr -e 210 -c 1 -i 1 -a 1 -x {0.1 1073741824.0 1 ------- null}
- -t 1.00375 -s 0 -d 1 -p cbr -e 210 -c 1 -i 1 -a 1 -x {0.1 1073741824.0 1 ------- null}
h -t 1.00375 -s 0 -d 1 -p cbr -e 210 -c 1 -i 1 -a 1 -x {0.1 1073741824.0 -1 ------- null}
+ -t 1.00375 -s 0 -d 2 -p cbr -e 210 -c 1 -i 1 -a 1 -x {0.1 1073741824.0 1 ------- null}
- -t 1.00375 -s 0 -d 2 -p cbr -e 210 -c 1 -i 1 -a 1 -x {0.1 1073741824.0 1 ------- null}
h -t 1.00375 -s 0 -d 2 -p cbr -e 210 -c 1 -i 1 -a 1 -x {0.1 1073741824.0 -1 ------- null}
+ -t 1.00375 -s 0 -d 3 -p cbr -e 210 -c 1 -i 1 -a 1 -x {0.1 1073741824.0 1 ------- null}
- -t 1.00375 -s 0 -d 3 -p cbr -e 210 -c 1 -i 1 -a 1 -x {0.1 1073741824.0 1 ------- null}
h -t 1.00375 -s 0 -d 3 -p cbr -e 210 -c 1 -i 1 -a 1 -x {0.1 1073741824.0 -1 ------- null}
+ -t 1.0075 -s 0 -d 4 -p cbr -e 210 -c 1 -i 2 -a 1 -x {0.1 1073741824.0 2 ------- null}
- -t 1.0075 -s 0 -d 4 -p cbr -e 210 -c 1 -i 2 -a 1 -x {0.1 1073741824.0 2 ------- null}
h -t 1.0075 -s 0 -d 4 -p cbr -e 210 -c 1 -i 2 -a 1 -x {0.1 1073741824.0 -1 ------- null}
+ -t 1.0075 -s 0 -d 1 -p cbr -e 210 -c 1 -i 2 -a 1 -x {0.1 1073741824.0 2 ------- null}
- -t 1.0075 -s 0 -d 1 -p cbr -e 210 -c 1 -i 2 -a 1 -x {0.1 1073741824.0 2 ------- null}
h -t 1.0075 -s 0 -d 1 -p cbr -e 210 -c 1 -i 2 -a 1 -x {0.1 1073741824.0 -1 ------- null}
+ -t 1.0075 -s 0 -d 2 -p cbr -e 210 -c 1 -i 2 -a 1 -x {0.1 1073741824.0 2 ------- null}
- -t 1.0075 -s 0 -d 2 -p cbr -e 210 -c 1 -i 2 -a 1 -x {0.1 1073741824.0 2 ------- null}
h -t 1.0075 -s 0 -d 2 -p cbr -e 210 -c 1 -i 2 -a 1 -x {0.1 1073741824.0 -1 ------- null}
+ -t 1.0075 -s 0 -d 3 -p cbr -e 210 -c 1 -i 2 -a 1 -x {0.1 1073741824.0 2 ------- null}
- -t 1.0075 -s 0 -d 3 -p cbr -e 210 -c 1 -i 2 -a 1 -x {0.1 1073741824.0 2 ------- null}
h -t 1.0075 -s 0 -d 3 -p cbr -e 210 -c 1 -i 2 -a 1 -x {0.1 1073741824.0 -1 ------- null}
r -t 1.01112 -s 0 -d 1 -p cbr -e 210 -c 1 -i 0 -a 1 -x {0.1 1073741824.0 0 ------- null}
+ -t 1.01125 -s 0 -d 4 -p cbr -e 210 -c 1 -i 3 -a 1 -x {0.1 1073741824.0 3 ------- null}
- -t 1.01125 -s 0 -d 4 -p cbr -e 210 -c 1 -i 3 -a 1 -x {0.1 1073741824.0 3 ------- null}
h -t 1.01125 -s 0 -d 4 -p cbr -e 210 -c 1 -i 3 -a 1 -x {0.1 1073741824.0 -1 ------- null}
+ -t 1.01125 -s 0 -d 1 -p cbr -e 210 -c 1 -i 3 -a 1 -x {0.1 1073741824.0 3 ------- null}
- -t 1.01125 -s 0 -d 1 -p cbr -e 210 -c 1 -i 3 -a 1 -x {0.1 1073741824.0 3 ------- null}
h -t 1.01125 -s 0 -d 1 -p cbr -e 210 -c 1 -i 3 -a 1 -x {0.1 1073741824.0 -1 ------- null}
+ -t 1.01125 -s 0 -d 2 -p cbr -e 210 -c 1 -i 3 -a 1 -x {0.1 1073741824.0 3 ------- null}
- -t 1.01125 -s 0 -d 2 -p cbr -e 210 -c 1 -i 3 -a 1 -x {0.1 1073741824.0 3 ------- null}
h -t 1.01125 -s 0 -d 2 -p cbr -e 210 -c 1 -i 3 -a 1 -x {0.1 1073741824.0 -1 ------- null}
+ -t 1.01125 -s 0 -d 3 -p cbr -e 210 -c 1 -i 3 -a 1 -x {0.1 1073741824.0 3 ------- null}
- -t 1.01125 -s 0 -d 3 -p cbr -e 210 -c 1 -i 3 -a 1 -x {0.1 1073741824.0 3 ------- null}
h -t 1.01125 -s 0 -d 3 -p cbr -e 210 -c 1 -i 3 -a 1 -x {0.1 1073741824.0 -1 ------- null}
r -t 1.01487 -s 0 -d 1 -p cbr -e 210 -c 1 -i 1 -a 1 -x {0.1 1073741824.0 1 ------- null}
+ -t 1.015 -s 0 -d 4 -p cbr -e 210 -c 1 -i 4 -a 1 -x {0.1 1073741824.0 4 ------- null}
- -t 1.015 -s 0 -d 4 -p cbr -e 210 -c 1 -i 4 -a 1 -x {0.1 1073741824.0 4 ------- null}
h -t 1.015 -s 0 -d 4 -p cbr -e 210 -c 1 -i 4 -a 1 -x {0.1 1073741824.0 -1 ------- null}
+ -t 1.015 -s 0 -d 1 -p cbr -e 210 -c 1 -i 4 -a 1 -x {0.1 1073741824.0 4 ------- null}
- -t 1.015 -s 0 -d 1 -p cbr -e 210 -c 1 -i 4 -a 1 -x {0.1 1073741824.0 4 ------- null}
h -t 1.015 -s 0 -d 1 -p cbr -e 210 -c 1 -i 4 -a 1 -x {0.1 1073741824.0 -1 ------- null}
+ -t 1.015 -s 0 -d 2 -p cbr -e 210 -c 1 -i 4 -a 1 -x {0.1 1073741824.0 4 ------- null}
- -t 1.015 -s 0 -d 2 -p cbr -e 210 -c 1 -i 4 -a 1 -x {0.1 1073741824.0 4 ------- null}
h -t 1.015 -s 0 -d 2 -p cbr -e 210 -c 1 -i 4 -a 1 -x {0.1 1073741824.0 -1 ------- null}
+ -t 1.015 -s 0 -d 3 -p cbr -e 210 -c 1 -i 4 -a 1 -x {0.1 1073741824.0 4 ------- null}
- -t 1.015 -s 0 -d 3 -p cbr -e 210 -c 1 -i 4 -a 1 -x {0.1 1073741824.0 4 ------- null}
h -t 1.015 -s 0 -d 3 -p cbr -e 210 -c 1 -i 4 -a 1 -x {0.1 1073741824.0 -1 ------- null}
r -t 1.01862 -s 0 -d 1 -p cbr -e 210 -c 1 -i 2 -a 1 -x {0.1 1073741824.0 2 ------- null}
+ -t 1.01875 -s 0 -d 4 -p cbr -e 210 -c 1 -i 5 -a 1 -x {0.1 1073741824.0 5 ------- null}
- -t 1.01875 -s 0 -d 4 -p cbr -e 210 -c 1 -i 5 -a 1 -x {0.1 1073741824.0 5 ------- null}
h -t 1.01875 -s 0 -d 4 -p cbr -e 210 -c 1 -i 5 -a 1 -x {0.1 1073741824.0 -1 ------- null}
+ -t 1.01875 -s 0 -d 1 -p cbr -e 210 -c 1 -i 5 -a 1 -x {0.1 1073741824.0 5 ------- null}
- -t 1.01875 -s 0 -d 1 -p cbr -e 210 -c 1 -i 5 -a 1 -x {0.1 1073741824.0 5 ------- null}
h -t 1.01875 -s 0 -d 1 -p cbr -e 210 -c 1 -i 5 -a 1 -x {0.1 1073741824.0 -1 ------- null}
+ -t 1.01875 -s 0 -d 2 -p cbr -e 210 -c 1 -i 5 -a 1 -x {0.1 1073741824.0 5 ------- null}
- -t 1.01875 -s 0 -d 2 -p cbr -e 210 -c 1 -i 5 -a 1 -x {0.1 1073741824.0 5 ------- null}
h -t 1.01875 -s 0 -d 2 -p cbr -e 210 -c 1 -i 5 -a 1 -x {0.1 1073741824.0 -1 ------- null}
+ -t 1.01875 -s 0 -d 3 -p cbr -e 210 -c 1 -i 5 -a 1 -x {0.1 1073741824.0 5 ------- null}
- -t 1.01875 -s 0 -d 3 -p cbr -e 210 -c 1 -i 5 -a 1 -x {0.1 1073741824.0 5 ------- null}
h -t 1.01875 -s 0 -d 3 -p cbr -e 210 -c 1 -i 5 -a 1 -x {0.1 1073741824.0 -1 ------- null}
r -t 1.02237 -s 0 -d 1 -p cbr -e 210 -c 1 -i 3 -a 1 -x {0.1 1073741824.0 3 ------- null}
+ -t 1.0225 -s 0 -d 4 -p cbr -e 210 -c 1 -i 6 -a 1 -x {0.1 1073741824.0 6 ------- null}
- -t 1.0225 -s 0 -d 4 -p cbr -e 210 -c 1 -i 6 -a 1 -x {0.1 1073741824.0 6 ------- null}
h -t 1.0225 -s 0 -d 4 -p cbr -e 210 -c 1 -i 6 -a 1 -x {0.1 1073741824.0 -1 ------- null}
+ -t 1.0225 -s 0 -d 1 -p cbr -e 210 -c 1 -i 6 -a 1 -x {0.1 1073741824.0 6 ------- null}
- -t 1.0225 -s 0 -d 1 -p cbr -e 210 -c 1 -i 6 -a 1 -x {0.1 1073741824.0 6 ------- null}
h -t 1.0225 -s 0 -d 1 -p cbr -e 210 -c 1 -i 6 -a 1 -x {0.1 1073741824.0 -1 ------- null}
+ -t 1.0225 -s 0 -d 2 -p cbr -e 210 -c 1 -i 6 -a 1 -x {0.1 1073741824.0 6 ------- null}
- -t 1.0225 -s 0 -d 2 -p cbr -e 210 -c 1 -i 6 -a 1 -x {0.1 1073741824.0 6 ------- null}
h -t 1.0225 -s 0 -d 2 -p cbr -e 210 -c 1 -i 6 -a 1 -x {0.1 1073741824.0 -1 ------- null}
+ -t 1.0225 -s 0 -d 3 -p cbr -e 210 -c 1 -i 6 -a 1 -x {0.1 1073741824.0 6 ------- null}
- -t 1.0225 -s 0 -d 3 -p cbr -e 210 -c 1 -i 6 -a 1 -x {0.1 1073741824.0 6 ------- null}
h -t 1.0225 -s 0 -d 3 -p cbr -e 210 -c 1 -i 6 -a 1 -x {0.1 1073741824.0 -1 ------- null}
r -t 1.02612 -s 0 -d 1 -p cbr -e 210 -c 1 -i 4 -a 1 -x {0.1 1073741824.0 4 ------- null}
+ -t 1.02625 -s 0 -d 4 -p cbr -e 210 -c 1 -i 7 -a 1 -x {0.1 1073741824.0 7 ------- null}
- -t 1.02625 -s 0 -d 4 -p cbr -e 210 -c 1 -i 7 -a 1 -x {0.1 1073741824.0 7 ------- null}
h -t 1.02625 -s 0 -d 4 -p cbr -e 210 -c 1 -i 7 -a 1 -x {0.1 1073741824.0 -1 ------- null}
+ -t 1.02625 -s 0 -d 1 -p cbr -e 210 -c 1 -i 7 -a 1 -x {0.1 1073741824.0 7 ------- null}
- -t 1.02625 -s 0 -d 1 -p cbr -e 210 -c 1 -i 7 -a 1 -x {0.1 1073741824.0 7 ------- null}
h -t 1.02625 -s 0 -d 1 -p cbr -e 210 -c 1 -i 7 -a 1 -x {0.1 1073741824.0 -1 ------- null}
+ -t 1.02625 -s 0 -d 2 -p cbr -e 210 -c 1 -i 7 -a 1 -x {0.1 1073741824.0 7 ------- null}
- -t 1.02625 -s 0 -d 2 -p cbr -e 210 -c 1 -i 7 -a 1 -x {0.1 1073741824.0 7 ------- null}
h -t 1.02625 -s 0 -d 2 -p cbr -e 210 -c 1 -i 7 -a 1 -x {0.1 1073741824.0 -1 ------- null}
+ -t 1.02625 -s 0 -d 3 -p cbr -e 210 -c 1 -i 7 -a 1 -x {0.1 1073741824.0 7 ------- null}
- -t 1.02625 -s 0 -d 3 -p cbr -e 210 -c 1 -i 7 -a 1 -x {0.1 1073741824.0 7 ------- null}
h -t 1.02625 -s 0 -d 3 -p cbr -e 210 -c 1 -i 7 -a 1 -x {0.1 1073741824.0 -1 ------- null}
r -t 1.02987 -s 0 -d 1 -p cbr -e 210 -c 1 -i 5 -a 1 -x {0.1 1073741824.0 5 ------- null}
+ -t 1.03 -s 0 -d 4 -p cbr -e 210 -c 1 -i 8 -a 1 -x {0.1 1073741824.0 8 ------- null}
- -t 1.03 -s 0 -d 4 -p cbr -e 210 -c 1 -i 8 -a 1 -x {0.1 1073741824.0 8 ------- null}
h -t 1.03 -s 0 -d 4 -p cbr -e 210 -c 1 -i 8 -a 1 -x {0.1 1073741824.0 -1 ------- null}
+ -t 1.03 -s 0 -d 1 -p cbr -e 210 -c 1 -i 8 -a 1 -x {0.1 1073741824.0 8 ------- null}
- -t 1.03 -s 0 -d 1 -p cbr -e 210 -c 1 -i 8 -a 1 -x {0.1 1073741824.0 8 ------- null}
h -t 1.03 -s 0 -d 1 -p cbr -e 210 -c 1 -i 8 -a 1 -x {0.1 1073741824.0 -1 ------- null}
+ -t 1.03 -s 0 -d 2 -p cbr -e 210 -c 1 -i 8 -a 1 -x {0.1 1073741824.0 8 ------- null}
- -t 1.03 -s 0 -d 2 -p cbr -e 210 -c 1 -i 8 -a 1 -x {0.1 1073741824.0 8 ------- null}
h -t 1.03 -s 0 -d 2 -p cbr -e 210 -c 1 -i 8 -a 1 -x {0.1 1073741824.0 -1 ------- null}
+ -t 1.03 -s 0 -d 3 -p cbr -e 210 -c 1 -i 8 -a 1 -x {0.1 1073741824.0 8 ------- null}
- -t 1.03 -s 0 -d 3 -p cbr -e 210 -c 1 -i 8 -a 1 -x {0.1 1073741824.0 8 ------- null}
h -t 1.03 -s 0 -d 3 -p cbr -e 210 -c 1 -i 8 -a 1 -x {0.1 1073741824.0 -1 ------- null}
r -t 1.03336 -s 0 -d 4 -p cbr -e 210 -c 1 -i 0 -a 1 -x {0.1 1073741824.0 0 ------- null}
r -t 1.03362 -s 0 -d 1 -p cbr -e 210 -c 1 -i 6 -a 1 -x {0.1 1073741824.0 6 ------- null}
+ -t 1.03375 -s 0 -d 4 -p cbr -e 210 -c 1 -i 9 -a 1 -x {0.1 1073741824.0 9 ------- null}
- -t 1.03375 -s 0 -d 4 -p cbr -e 210 -c 1 -i 9 -a 1 -x {0.1 1073741824.0 9 ------- null}
h -t 1.03375 -s 0 -d 4 -p cbr -e 210 -c 1 -i 9 -a 1 -x {0.1 1073741824.0 -1 ------- null}
+ -t 1.03375 -s 0 -d 1 -p cbr -e 210 -c 1 -i 9 -a 1 -x {0.1 1073741824.0 9 ------- null}
- -t 1.03375 -s 0 -d 1 -p cbr -e 210 -c 1 -i 9 -a 1 -x {0.1 1073741824.0 9 ------- null}
h -t 1.03375 -s 0 -d 1 -p cbr -e 210 -c 1 -i 9 -a 1 -x {0.1 1073741824.0 -1 ------- null}
+ -t 1.03375 -s 0 -d 2 -p cbr -e 210 -c 1 -i 9 -a 1 -x {0.1 1073741824.0 9 ------- null}
- -t 1.03375 -s 0 -d 2 -p cbr -e 210 -c 1 -i 9 -a 1 -x {0.1 1073741824.0 9 ------- null}
h -t 1.03375 -s 0 -d 2 -p cbr -e 210 -c 1 -i 9 -a 1 -x {0.1 1073741824.0 -1 ------- null}
+ -t 1.03375 -s 0 -d 3 -p cbr -e 210 -c 1 -i 9 -a 1 -x {0.1 1073741824.0 9 ------- null}
- -t 1.03375 -s 0 -d 3 -p cbr -e 210 -c 1 -i 9 -a 1 -x {0.1 1073741824.0 9 ------- null}
h -t 1.03375 -s 0 -d 3 -p cbr -e 210 -c 1 -i 9 -a 1 -x {0.1 1073741824.0 -1 ------- null}
r -t 1.03711 -s 0 -d 4 -p cbr -e 210 -c 1 -i 1 -a 1 -x {0.1 1073741824.0 1 ------- null}
r -t 1.03737 -s 0 -d 1 -p cbr -e 210 -c 1 -i 7 -a 1 -x {0.1 1073741824.0 7 ------- null}
+ -t 1.0375 -s 0 -d 4 -p cbr -e 210 -c 1 -i 10 -a 1 -x {0.1 1073741824.0 10 ------- null}
- -t 1.0375 -s 0 -d 4 -p cbr -e 210 -c 1 -i 10 -a 1 -x {0.1 1073741824.0 10 ------- null}
h -t 1.0375 -s 0 -d 4 -p cbr -e 210 -c 1 -i 10 -a 1 -x {0.1 1073741824.0 -1 ------- null}
+ -t 1.0375 -s 0 -d 1 -p cbr -e 210 -c 1 -i 10 -a 1 -x {0.1 1073741824.0 10 ------- null}
- -t 1.0375 -s 0 -d 1 -p cbr -e 210 -c 1 -i 10 -a 1 -x {0.1 1073741824.0 10 ------- null}
h -t 1.0375 -s 0 -d 1 -p cbr -e 210 -c 1 -i 10 -a 1 -x {0.1 1073741824.0 -1 ------- null}
+ -t 1.0375 -s 0 -d 2 -p cbr -e 210 -c 1 -i 10 -a 1 -x {0.1 1073741824.0 10 ------- null}
- -t 1.0375 -s 0 -d 2 -p cbr -e 210 -c 1 -i 10 -a 1 -x {0.1 1073741824.0 10 ------- null}
h -t 1.0375 -s 0 -d 2 -p cbr -e 210 -c 1 -i 10 -a 1 -x {0.1 1073741824.0 -1 ------- null}
+ -t 1.0375 -s 0 -d 3 -p cbr -e 210 -c 1 -i 10 -a 1 -x {0.1 1073741824.0 10 ------- null}
- -t 1.0375 -s 0 -d 3 -p cbr -e 210 -c 1 -i 10 -a 1 -x {0.1 1073741824.0 10 ------- null}
h -t 1.0375 -s 0 -d 3 -p cbr -e 210 -c 1 -i 10 -a 1 -x {0.1 1073741824.0 -1 ------- null}
r -t 1.04086 -s 0 -d 4 -p cbr -e 210 -c 1 -i 2 -a 1 -x {0.1 1073741824.0 2 ------- null}
r -t 1.04112 -s 0 -d 1 -p cbr -e 210 -c 1 -i 8 -a 1 -x {0.1 1073741824.0 8 ------- null}
+ -t 1.04125 -s 0 -d 4 -p cbr -e 210 -c 1 -i 11 -a 1 -x {0.1 1073741824.0 11 ------- null}
- -t 1.04125 -s 0 -d 4 -p cbr -e 210 -c 1 -i 11 -a 1 -x {0.1 1073741824.0 11 ------- null}
h -t 1.04125 -s 0 -d 4 -p cbr -e 210 -c 1 -i 11 -a 1 -x {0.1 1073741824.0 -1 ------- null}
+ -t 1.04125 -s 0 -d 1 -p cbr -e 210 -c 1 -i 11 -a 1 -x {0.1 1073741824.0 11 ------- null}
- -t 1.04125 -s 0 -d 1 -p cbr -e 210 -c 1 -i 11 -a 1 -x {0.1 1073741824.0 11 ------- null}
h -t 1.04125 -s 0 -d 1 -p cbr -e 210 -c 1 -i 11 -a 1 -x {0.1 1073741824.0 -1 ------- null}
+ -t 1.04125 -s 0 -d 2 -p cbr -e 210 -c 1 -i 11 -a 1 -x {0.1 1073741824.0 11 ------- null}
- -t 1.04125 -s 0 -d 2 -p cbr -e 210 -c 1 -i 11 -a 1 -x {0.1 1073741824.0 11 ------- null}
h -t 1.04125 -s 0 -d 2 -p cbr -e 210 -c 1 -i 11 -a 1 -x {0.1 1073741824.0 -1 ------- null}
+ -t 1.04125 -s 0 -d 3 -p cbr -e 210 -c 1 -i 11 -a 1 -x {0.1 1073741824.0 11 ------- null}
- -t 1.04125 -s 0 -d 3 -p cbr -e 210 -c 1 -i 11 -a 1 -x {0.1 1073741824.0 11 ------- null}
h -t 1.04125 -s 0 -d 3 -p cbr -e 210 -c 1 -i 11 -a 1 -x {0.1 1073741824.0 -1 ------- null}
r -t 1.0421 -s 0 -d 2 -p cbr -e 210 -c 1 -i 0 -a 1 -x {0.1 1073741824.0 0 ------- null}
r -t 1.04461 -s 0 -d 4 -p cbr -e 210 -c 1 -i 3 -a 1 -x {0.1 1073741824.0 3 ------- null}
r -t 1.04487 -s 0 -d 1 -p cbr -e 210 -c 1 -i 9 -a 1 -x {0.1 1073741824.0 9 ------- null}
+ -t 1.045 -s 0 -d 4 -p cbr -e 210 -c 1 -i 12 -a 1 -x {0.1 1073741824.0 12 ------- null}
- -t 1.045 -s 0 -d 4 -p cbr -e 210 -c 1 -i 12 -a 1 -x {0.1 1073741824.0 12 ------- null}
h -t 1.045 -s 0 -d 4 -p cbr -e 210 -c 1 -i 12 -a 1 -x {0.1 1073741824.0 -1 ------- null}
+ -t 1.045 -s 0 -d 1 -p cbr -e 210 -c 1 -i 12 -a 1 -x {0.1 1073741824.0 12 ------- null}
- -t 1.045 -s 0 -d 1 -p cbr -e 210 -c 1 -i 12 -a 1 -x {0.1 1073741824.0 12 ------- null}
h -t 1.045 -s 0 -d 1 -p cbr -e 210 -c 1 -i 12 -a 1 -x {0.1 1073741824.0 -1 ------- null}
+ -t 1.045 -s 0 -d 2 -p cbr -e 210 -c 1 -i 12 -a 1 -x {0.1 1073741824.0 12 ------- null}
- -t 1.045 -s 0 -d 2 -p cbr -e 210 -c 1 -i 12 -a 1 -x {0.1 1073741824.0 12 ------- null}
h -t 1.045 -s 0 -d 2 -p cbr -e 210 -c 1 -i 12 -a 1 -x {0.1 1073741824.0 -1 ------- null}
+ -t 1.045 -s 0 -d 3 -p cbr -e 210 -c 1 -i 12 -a 1 -x {0.1 1073741824.0 12 ------- null}
- -t 1.045 -s 0 -d 3 -p cbr -e 210 -c 1 -i 12 -a 1 -x {0.1 1073741824.0 12 ------- null}
h -t 1.045 -s 0 -d 3 -p cbr -e 210 -c 1 -i 12 -a 1 -x {0.1 1073741824.0 -1 ------- null}
r -t 1.04585 -s 0 -d 2 -p cbr -e 210 -c 1 -i 1 -a 1 -x {0.1 1073741824.0 1 ------- null}
r -t 1.04836 -s 0 -d 4 -p cbr -e 210 -c 1 -i 4 -a 1 -x {0.1 1073741824.0 4 ------- null}
r -t 1.04862 -s 0 -d 1 -p cbr -e 210 -c 1 -i 10 -a 1 -x {0.1 1073741824.0 10 ------- null}
+ -t 1.04875 -s 0 -d 4 -p cbr -e 210 -c 1 -i 13 -a 1 -x {0.1 1073741824.0 13 ------- null}
- -t 1.04875 -s 0 -d 4 -p cbr -e 210 -c 1 -i 13 -a 1 -x {0.1 1073741824.0 13 ------- null}
h -t 1.04875 -s 0 -d 4 -p cbr -e 210 -c 1 -i 13 -a 1 -x {0.1 1073741824.0 -1 ------- null}
+ -t 1.04875 -s 0 -d 1 -p cbr -e 210 -c 1 -i 13 -a 1 -x {0.1 1073741824.0 13 ------- null}
- -t 1.04875 -s 0 -d 1 -p cbr -e 210 -c 1 -i 13 -a 1 -x {0.1 1073741824.0 13 ------- null}
h -t 1.04875 -s 0 -d 1 -p cbr -e 210 -c 1 -i 13 -a 1 -x {0.1 1073741824.0 -1 ------- null}
+ -t 1.04875 -s 0 -d 2 -p cbr -e 210 -c 1 -i 13 -a 1 -x {0.1 1073741824.0 13 ------- null}
- -t 1.04875 -s 0 -d 2 -p cbr -e 210 -c 1 -i 13 -a 1 -x {0.1 1073741824.0 13 ------- null}
h -t 1.04875 -s 0 -d 2 -p cbr -e 210 -c 1 -i 13 -a 1 -x {0.1 1073741824.0 -1 ------- null}
+ -t 1.04875 -s 0 -d 3 -p cbr -e 210 -c 1 -i 13 -a 1 -x {0.1 1073741824.0 13 ------- null}
- -t 1.04875 -s 0 -d 3 -p cbr -e 210 -c 1 -i 13 -a 1 -x {0.1 1073741824.0 13 ------- null}
h -t 1.04875 -s 0 -d 3 -p cbr -e 210 -c 1 -i 13 -a 1 -x {0.1 1073741824.0 -1 ------- null}
r -t 1.0496 -s 0 -d 2 -p cbr -e 210 -c 1 -i 2 -a 1 -x {0.1 1073741824.0 2 ------- null}
r -t 1.05211 -s 0 -d 4 -p cbr -e 210 -c 1 -i 5 -a 1 -x {0.1 1073741824.0 5 ------- null}
r -t 1.05237 -s 0 -d 1 -p cbr -e 210 -c 1 -i 11 -a 1 -x {0.1 1073741824.0 11 ------- null}
+ -t 1.0525 -s 0 -d 4 -p cbr -e 210 -c 1 -i 14 -a 1 -x {0.1 1073741824.0 14 ------- null}
- -t 1.0525 -s 0 -d 4 -p cbr -e 210 -c 1 -i 14 -a 1 -x {0.1 1073741824.0 14 ------- null}
h -t 1.0525 -s 0 -d 4 -p cbr -e 210 -c 1 -i 14 -a 1 -x {0.1 1073741824.0 -1 ------- null}
+ -t 1.0525 -s 0 -d 1 -p cbr -e 210 -c 1 -i 14 -a 1 -x {0.1 1073741824.0 14 ------- null}
- -t 1.0525 -s 0 -d 1 -p cbr -e 210 -c 1 -i 14 -a 1 -x {0.1 1073741824.0 14 ------- null}
h -t 1.0525 -s 0 -d 1 -p cbr -e 210 -c 1 -i 14 -a 1 -x {0.1 1073741824.0 -1 ------- null}
+ -t 1.0525 -s 0 -d 2 -p cbr -e 210 -c 1 -i 14 -a 1 -x {0.1 1073741824.0 14 ------- null}
- -t 1.0525 -s 0 -d 2 -p cbr -e 210 -c 1 -i 14 -a 1 -x {0.1 1073741824.0 14 ------- null}
h -t 1.0525 -s 0 -d 2 -p cbr -e 210 -c 1 -i 14 -a 1 -x {0.1 1073741824.0 -1 ------- null}
+ -t 1.0525 -s 0 -d 3 -p cbr -e 210 -c 1 -i 14 -a 1 -x {0.1 1073741824.0 14 ------- null}
- -t 1.0525 -s 0 -d 3 -p cbr -e 210 -c 1 -i 14 -a 1 -x {0.1 1073741824.0 14 ------- null}
h -t 1.0525 -s 0 -d 3 -p cbr -e 210 -c 1 -i 14 -a 1 -x {0.1 1073741824.0 -1 ------- null}
r -t 1.05335 -s 0 -d 2 -p cbr -e 210 -c 1 -i 3 -a 1 -x {0.1 1073741824.0 3 ------- null}
r -t 1.05586 -s 0 -d 4 -p cbr -e 210 -c 1 -i 6 -a 1 -x {0.1 1073741824.0 6 ------- null}
r -t 1.05612 -s 0 -d 1 -p cbr -e 210 -c 1 -i 12 -a 1 -x {0.1 1073741824.0 12 ------- null}
+ -t 1.05625 -s 0 -d 4 -p cbr -e 210 -c 1 -i 15 -a 1 -x {0.1 1073741824.0 15 ------- null}
- -t 1.05625 -s 0 -d 4 -p cbr -e 210 -c 1 -i 15 -a 1 -x {0.1 1073741824.0 15 ------- null}
h -t 1.05625 -s 0 -d 4 -p cbr -e 210 -c 1 -i 15 -a 1 -x {0.1 1073741824.0 -1 ------- null}
+ -t 1.05625 -s 0 -d 1 -p cbr -e 210 -c 1 -i 15 -a 1 -x {0.1 1073741824.0 15 ------- null}
- -t 1.05625 -s 0 -d 1 -p cbr -e 210 -c 1 -i 15 -a 1 -x {0.1 1073741824.0 15 ------- null}
h -t 1.05625 -s 0 -d 1 -p cbr -e 210 -c 1 -i 15 -a 1 -x {0.1 1073741824.0 -1 ------- null}
+ -t 1.05625 -s 0 -d 2 -p cbr -e 210 -c 1 -i 15 -a 1 -x {0.1 1073741824.0 15 ------- null}
- -t 1.05625 -s 0 -d 2 -p cbr -e 210 -c 1 -i 15 -a 1 -x {0.1 1073741824.0 15 ------- null}
h -t 1.05625 -s 0 -d 2 -p cbr -e 210 -c 1 -i 15 -a 1 -x {0.1 1073741824.0 -1 ------- null}
+ -t 1.05625 -s 0 -d 3 -p cbr -e 210 -c 1 -i 15 -a 1 -x {0.1 1073741824.0 15 ------- null}
- -t 1.05625 -s 0 -d 3 -p cbr -e 210 -c 1 -i 15 -a 1 -x {0.1 1073741824.0 15 ------- null}
h -t 1.05625 -s 0 -d 3 -p cbr -e 210 -c 1 -i 15 -a 1 -x {0.1 1073741824.0 -1 ------- null}
r -t 1.0571 -s 0 -d 2 -p cbr -e 210 -c 1 -i 4 -a 1 -x {0.1 1073741824.0 4 ------- null}
r -t 1.05961 -s 0 -d 4 -p cbr -e 210 -c 1 -i 7 -a 1 -x {0.1 1073741824.0 7 ------- null}
r -t 1.05987 -s 0 -d 1 -p cbr -e 210 -c 1 -i 13 -a 1 -x {0.1 1073741824.0 13 ------- null}
+ -t 1.06 -s 0 -d 4 -p cbr -e 210 -c 1 -i 16 -a 1 -x {0.1 1073741824.0 16 ------- null}
- -t 1.06 -s 0 -d 4 -p cbr -e 210 -c 1 -i 16 -a 1 -x {0.1 1073741824.0 16 ------- null}
h -t 1.06 -s 0 -d 4 -p cbr -e 210 -c 1 -i 16 -a 1 -x {0.1 1073741824.0 -1 ------- null}
+ -t 1.06 -s 0 -d 1 -p cbr -e 210 -c 1 -i 16 -a 1 -x {0.1 1073741824.0 16 ------- null}
- -t 1.06 -s 0 -d 1 -p cbr -e 210 -c 1 -i 16 -a 1 -x {0.1 1073741824.0 16 ------- null}
h -t 1.06 -s 0 -d 1 -p cbr -e 210 -c 1 -i 16 -a 1 -x {0.1 1073741824.0 -1 ------- null}
+ -t 1.06 -s 0 -d 2 -p cbr -e 210 -c 1 -i 16 -a 1 -x {0.1 1073741824.0 16 ------- null}
- -t 1.06 -s 0 -d 2 -p cbr -e 210 -c 1 -i 16 -a 1 -x {0.1 1073741824.0 16 ------- null}
h -t 1.06 -s 0 -d 2 -p cbr -e 210 -c 1 -i 16 -a 1 -x {0.1 1073741824.0 -1 ------- null}
+ -t 1.06 -s 0 -d 3 -p cbr -e 210 -c 1 -i 16 -a 1 -x {0.1 1073741824.0 16 ------- null}
- -t 1.06 -s 0 -d 3 -p cbr -e 210 -c 1 -i 16 -a 1 -x {0.1 1073741824.0 16 ------- null}
h -t 1.06 -s 0 -d 3 -p cbr -e 210 -c 1 -i 16 -a 1 -x {0.1 1073741824.0 -1 ------- null}
r -t 1.06085 -s 0 -d 2 -p cbr -e 210 -c 1 -i 5 -a 1 -x {0.1 1073741824.0 5 ------- null}
r -t 1.06336 -s 0 -d 4 -p cbr -e 210 -c 1 -i 8 -a 1 -x {0.1 1073741824.0 8 ------- null}
r -t 1.06362 -s 0 -d 1 -p cbr -e 210 -c 1 -i 14 -a 1 -x {0.1 1073741824.0 14 ------- null}
+ -t 1.06375 -s 0 -d 4 -p cbr -e 210 -c 1 -i 17 -a 1 -x {0.1 1073741824.0 17 ------- null}
- -t 1.06375 -s 0 -d 4 -p cbr -e 210 -c 1 -i 17 -a 1 -x {0.1 1073741824.0 17 ------- null}
h -t 1.06375 -s 0 -d 4 -p cbr -e 210 -c 1 -i 17 -a 1 -x {0.1 1073741824.0 -1 ------- null}
+ -t 1.06375 -s 0 -d 1 -p cbr -e 210 -c 1 -i 17 -a 1 -x {0.1 1073741824.0 17 ------- null}
- -t 1.06375 -s 0 -d 1 -p cbr -e 210 -c 1 -i 17 -a 1 -x {0.1 1073741824.0 17 ------- null}
h -t 1.06375 -s 0 -d 1 -p cbr -e 210 -c 1 -i 17 -a 1 -x {0.1 1073741824.0 -1 ------- null}
+ -t 1.06375 -s 0 -d 2 -p cbr -e 210 -c 1 -i 17 -a 1 -x {0.1 1073741824.0 17 ------- null}
- -t 1.06375 -s 0 -d 2 -p cbr -e 210 -c 1 -i 17 -a 1 -x {0.1 1073741824.0 17 ------- null}
h -t 1.06375 -s 0 -d 2 -p cbr -e 210 -c 1 -i 17 -a 1 -x {0.1 1073741824.0 -1 ------- null}
+ -t 1.06375 -s 0 -d 3 -p cbr -e 210 -c 1 -i 17 -a 1 -x {0.1 1073741824.0 17 ------- null}
- -t 1.06375 -s 0 -d 3 -p cbr -e 210 -c 1 -i 17 -a 1 -x {0.1 1073741824.0 17 ------- null}
h -t 1.06375 -s 0 -d 3 -p cbr -e 210 -c 1 -i 17 -a 1 -x {0.1 1073741824.0 -1 ------- null}
r -t 1.0646 -s 0 -d 2 -p cbr -e 210 -c 1 -i 6 -a 1 -x {0.1 1073741824.0 6 ------- null}
r -t 1.06711 -s 0 -d 4 -p cbr -e 210 -c 1 -i 9 -a 1 -x {0.1 1073741824.0 9 ------- null}
r -t 1.06737 -s 0 -d 1 -p cbr -e 210 -c 1 -i 15 -a 1 -x {0.1 1073741824.0 15 ------- null}
+ -t 1.0675 -s 0 -d 4 -p cbr -e 210 -c 1 -i 18 -a 1 -x {0.1 1073741824.0 18 ------- null}
- -t 1.0675 -s 0 -d 4 -p cbr -e 210 -c 1 -i 18 -a 1 -x {0.1 1073741824.0 18 ------- null}
h -t 1.0675 -s 0 -d 4 -p cbr -e 210 -c 1 -i 18 -a 1 -x {0.1 1073741824.0 -1 ------- null}
+ -t 1.0675 -s 0 -d 1 -p cbr -e 210 -c 1 -i 18 -a 1 -x {0.1 1073741824.0 18 ------- null}
- -t 1.0675 -s 0 -d 1 -p cbr -e 210 -c 1 -i 18 -a 1 -x {0.1 1073741824.0 18 ------- null}
h -t 1.0675 -s 0 -d 1 -p cbr -e 210 -c 1 -i 18 -a 1 -x {0.1 1073741824.0 -1 ------- null}
+ -t 1.0675 -s 0 -d 2 -p cbr -e 210 -c 1 -i 18 -a 1 -x {0.1 1073741824.0 18 ------- null}
- -t 1.0675 -s 0 -d 2 -p cbr -e 210 -c 1 -i 18 -a 1 -x {0.1 1073741824.0 18 ------- null}
h -t 1.0675 -s 0 -d 2 -p cbr -e 210 -c 1 -i 18 -a 1 -x {0.1 1073741824.0 -1 ------- null}
+ -t 1.0675 -s 0 -d 3 -p cbr -e 210 -c 1 -i 18 -a 1 -x {0.1 1073741824.0 18 ------- null}
- -t 1.0675 -s 0 -d 3 -p cbr -e 210 -c 1 -i 18 -a 1 -x {0.1 1073741824.0 18 ------- null}
h -t 1.0675 -s 0 -d 3 -p cbr -e 210 -c 1 -i 18 -a 1 -x {0.1 1073741824.0 -1 ------- null}
r -t 1.06835 -s 0 -d 2 -p cbr -e 210 -c 1 -i 7 -a 1 -x {0.1 1073741824.0 7 ------- null}
r -t 1.07086 -s 0 -d 4 -p cbr -e 210 -c 1 -i 10 -a 1 -x {0.1 1073741824.0 10 ------- null}
r -t 1.07112 -s 0 -d 1 -p cbr -e 210 -c 1 -i 16 -a 1 -x {0.1 1073741824.0 16 ------- null}
+ -t 1.07125 -s 0 -d 4 -p cbr -e 210 -c 1 -i 19 -a 1 -x {0.1 1073741824.0 19 ------- null}
- -t 1.07125 -s 0 -d 4 -p cbr -e 210 -c 1 -i 19 -a 1 -x {0.1 1073741824.0 19 ------- null}
h -t 1.07125 -s 0 -d 4 -p cbr -e 210 -c 1 -i 19 -a 1 -x {0.1 1073741824.0 -1 ------- null}
+ -t 1.07125 -s 0 -d 1 -p cbr -e 210 -c 1 -i 19 -a 1 -x {0.1 1073741824.0 19 ------- null}
- -t 1.07125 -s 0 -d 1 -p cbr -e 210 -c 1 -i 19 -a 1 -x {0.1 1073741824.0 19 ------- null}
h -t 1.07125 -s 0 -d 1 -p cbr -e 210 -c 1 -i 19 -a 1 -x {0.1 1073741824.0 -1 ------- null}
+ -t 1.07125 -s 0 -d 2 -p cbr -e 210 -c 1 -i 19 -a 1 -x {0.1 1073741824.0 19 ------- null}
- -t 1.07125 -s 0 -d 2 -p cbr -e 210 -c 1 -i 19 -a 1 -x {0.1 1073741824.0 19 ------- null}
h -t 1.07125 -s 0 -d 2 -p cbr -e 210 -c 1 -i 19 -a 1 -x {0.1 1073741824.0 -1 ------- null}
+ -t 1.07125 -s 0 -d 3 -p cbr -e 210 -c 1 -i 19 -a 1 -x {0.1 1073741824.0 19 ------- null}
- -t 1.07125 -s 0 -d 3 -p cbr -e 210 -c 1 -i 19 -a 1 -x {0.1 1073741824.0 19 ------- null}
h -t 1.07125 -s 0 -d 3 -p cbr -e 210 -c 1 -i 19 -a 1 -x {0.1 1073741824.0 -1 ------- null}
r -t 1.0721 -s 0 -d 2 -p cbr -e 210 -c 1 -i 8 -a 1 -x {0.1 1073741824.0 8 ------- null}
r -t 1.07461 -s 0 -d 4 -p cbr -e 210 -c 1 -i 11 -a 1 -x {0.1 1073741824.0 11 ------- null}
r -t 1.07487 -s 0 -d 1 -p cbr -e 210 -c 1 -i 17 -a 1 -x {0.1 1073741824.0 17 ------- null}
+ -t 1.075 -s 0 -d 4 -p cbr -e 210 -c 1 -i 20 -a 1 -x {0.1 1073741824.0 20 ------- null}
- -t 1.075 -s 0 -d 4 -p cbr -e 210 -c 1 -i 20 -a 1 -x {0.1 1073741824.0 20 ------- null}
h -t 1.075 -s 0 -d 4 -p cbr -e 210 -c 1 -i 20 -a 1 -x {0.1 1073741824.0 -1 ------- null}
+ -t 1.075 -s 0 -d 1 -p cbr -e 210 -c 1 -i 20 -a 1 -x {0.1 1073741824.0 20 ------- null}
- -t 1.075 -s 0 -d 1 -p cbr -e 210 -c 1 -i 20 -a 1 -x {0.1 1073741824.0 20 ------- null}
h -t 1.075 -s 0 -d 1 -p cbr -e 210 -c 1 -i 20 -a 1 -x {0.1 1073741824.0 -1 ------- null}
+ -t 1.075 -s 0 -d 2 -p cbr -e 210 -c 1 -i 20 -a 1 -x {0.1 1073741824.0 20 ------- null}
- -t 1.075 -s 0 -d 2 -p cbr -e 210 -c 1 -i 20 -a 1 -x {0.1 1073741824.0 20 ------- null}
h -t 1.075 -s 0 -d 2 -p cbr -e 210 -c 1 -i 20 -a 1 -x {0.1 1073741824.0 -1 ------- null}
+ -t 1.075 -s 0 -d 3 -p cbr -e 210 -c 1 -i 20 -a 1 -x {0.1 1073741824.0 20 ------- null}
- -t 1.075 -s 0 -d 3 -p cbr -e 210 -c 1 -i 20 -a 1 -x {0.1 1073741824.0 20 ------- null}
h -t 1.075 -s 0 -d 3 -p cbr -e 210 -c 1 -i 20 -a 1 -x {0.1 1073741824.0 -1 ------- null}
r -t 1.07585 -s 0 -d 2 -p cbr -e 210 -c 1 -i 9 -a 1 -x {0.1 1073741824.0 9 ------- null}
r -t 1.07836 -s 0 -d 4 -p cbr -e 210 -c 1 -i 12 -a 1 -x {0.1 1073741824.0 12 ------- null}
r -t 1.07862 -s 0 -d 1 -p cbr -e 210 -c 1 -i 18 -a 1 -x {0.1 1073741824.0 18 ------- null}
+ -t 1.07875 -s 0 -d 4 -p cbr -e 210 -c 1 -i 21 -a 1 -x {0.1 1073741824.0 21 ------- null}
- -t 1.07875 -s 0 -d 4 -p cbr -e 210 -c 1 -i 21 -a 1 -x {0.1 1073741824.0 21 ------- null}
h -t 1.07875 -s 0 -d 4 -p cbr -e 210 -c 1 -i 21 -a 1 -x {0.1 1073741824.0 -1 ------- null}
+ -t 1.07875 -s 0 -d 1 -p cbr -e 210 -c 1 -i 21 -a 1 -x {0.1 1073741824.0 21 ------- null}
- -t 1.07875 -s 0 -d 1 -p cbr -e 210 -c 1 -i 21 -a 1 -x {0.1 1073741824.0 21 ------- null}
h -t 1.07875 -s 0 -d 1 -p cbr -e 210 -c 1 -i 21 -a 1 -x {0.1 1073741824.0 -1 ------- null}
+ -t 1.07875 -s 0 -d 2 -p cbr -e 210 -c 1 -i 21 -a 1 -x {0.1 1073741824.0 21 ------- null}
- -t 1.07875 -s 0 -d 2 -p cbr -e 210 -c 1 -i 21 -a 1 -x {0.1 1073741824.0 21 ------- null}
h -t 1.07875 -s 0 -d 2 -p cbr -e 210 -c 1 -i 21 -a 1 -x {0.1 1073741824.0 -1 ------- null}
+ -t 1.07875 -s 0 -d 3 -p cbr -e 210 -c 1 -i 21 -a 1 -x {0.1 1073741824.0 21 ------- null}
- -t 1.07875 -s 0 -d 3 -p cbr -e 210 -c 1 -i 21 -a 1 -x {0.1 1073741824.0 21 ------- null}
h -t 1.07875 -s 0 -d 3 -p cbr -e 210 -c 1 -i 21 -a 1 -x {0.1 1073741824.0 -1 ------- null}
r -t 1.0796 -s 0 -d 2 -p cbr -e 210 -c 1 -i 10 -a 1 -x {0.1 1073741824.0 10 ------- null}
r -t 1.08211 -s 0 -d 4 -p cbr -e 210 -c 1 -i 13 -a 1 -x {0.1 1073741824.0 13 ------- null}
r -t 1.08237 -s 0 -d 1 -p cbr -e 210 -c 1 -i 19 -a 1 -x {0.1 1073741824.0 19 ------- null}
+ -t 1.0825 -s 0 -d 4 -p cbr -e 210 -c 1 -i 22 -a 1 -x {0.1 1073741824.0 22 ------- null}
- -t 1.0825 -s 0 -d 4 -p cbr -e 210 -c 1 -i 22 -a 1 -x {0.1 1073741824.0 22 ------- null}
h -t 1.0825 -s 0 -d 4 -p cbr -e 210 -c 1 -i 22 -a 1 -x {0.1 1073741824.0 -1 ------- null}
+ -t 1.0825 -s 0 -d 1 -p cbr -e 210 -c 1 -i 22 -a 1 -x {0.1 1073741824.0 22 ------- null}
- -t 1.0825 -s 0 -d 1 -p cbr -e 210 -c 1 -i 22 -a 1 -x {0.1 1073741824.0 22 ------- null}
h -t 1.0825 -s 0 -d 1 -p cbr -e 210 -c 1 -i 22 -a 1 -x {0.1 1073741824.0 -1 ------- null}
+ -t 1.0825 -s 0 -d 2 -p cbr -e 210 -c 1 -i 22 -a 1 -x {0.1 1073741824.0 22 ------- null}
- -t 1.0825 -s 0 -d 2 -p cbr -e 210 -c 1 -i 22 -a 1 -x {0.1 1073741824.0 22 ------- null}
h -t 1.0825 -s 0 -d 2 -p cbr -e 210 -c 1 -i 22 -a 1 -x {0.1 1073741824.0 -1 ------- null}
+ -t 1.0825 -s 0 -d 3 -p cbr -e 210 -c 1 -i 22 -a 1 -x {0.1 1073741824.0 22 ------- null}
- -t 1.0825 -s 0 -d 3 -p cbr -e 210 -c 1 -i 22 -a 1 -x {0.1 1073741824.0 22 ------- null}
h -t 1.0825 -s 0 -d 3 -p cbr -e 210 -c 1 -i 22 -a 1 -x {0.1 1073741824.0 -1 ------- null}
r -t 1.08335 -s 0 -d 2 -p cbr -e 210 -c 1 -i 11 -a 1 -x {0.1 1073741824.0 11 ------- null}
r -t 1.08586 -s 0 -d 4 -p cbr -e 210 -c 1 -i 14 -a 1 -x {0.1 1073741824.0 14 ------- null}
r -t 1.08612 -s 0 -d 1 -p cbr -e 210 -c 1 -i 20 -a 1 -x {0.1 1073741824.0 20 ------- null}
+ -t 1.08625 -s 0 -d 4 -p cbr -e 210 -c 1 -i 23 -a 1 -x {0.1 1073741824.0 23 ------- null}