v 0.3 eval {set sim_annotation {0.29999999999999999 1 join-group 1073741824}}
v 0.3 eval {set sim_annotation {0.29999999999999999 2 join-group 1073741824}}
v 0.3 eval {set sim_annotation {0.29999999999999999 3 join-group 1073741824}}
v 0.3 eval {set sim_annotation {0.29999999999999999 4 join-group 1073741824}}
+ 1 0 4 cbr 210 ------- 1 0.1 1073741824.0 0 0
- 1 0 4 cbr 210 ------- 1 0.1 1073741824.0 0 0
+ 1 0 1 cbr 210 ------- 1 0.1 1073741824.0 0 0
- 1 0 1 cbr 210 ------- 1 0.1 1073741824.0 0 0
+ 1 0 2 cbr 210 ------- 1 0.1 1073741824.0 0 0
- 1 0 2 cbr 210 ------- 1 0.1 1073741824.0 0 0
+ 1 0 3 cbr 210 ------- 1 0.1 1073741824.0 0 0
- 1 0 3 cbr 210 ------- 1 0.1 1073741824.0 0 0
+ 1.00375 0 4 cbr 210 ------- 1 0.1 1073741824.0 1 1
- 1.00375 0 4 cbr 210 ------- 1 0.1 1073741824.0 1 1
+ 1.00375 0 1 cbr 210 ------- 1 0.1 1073741824.0 1 1
- 1.00375 0 1 cbr 210 ------- 1 0.1 1073741824.0 1 1
+ 1.00375 0 2 cbr 210 ------- 1 0.1 1073741824.0 1 1
- 1.00375 0 2 cbr 210 ------- 1 0.1 1073741824.0 1 1
+ 1.00375 0 3 cbr 210 ------- 1 0.1 1073741824.0 1 1
- 1.00375 0 3 cbr 210 ------- 1 0.1 1073741824.0 1 1
+ 1.0075 0 4 cbr 210 ------- 1 0.1 1073741824.0 2 2
- 1.0075 0 4 cbr 210 ------- 1 0.1 1073741824.0 2 2
+ 1.0075 0 1 cbr 210 ------- 1 0.1 1073741824.0 2 2
- 1.0075 0 1 cbr 210 ------- 1 0.1 1073741824.0 2 2
+ 1.0075 0 2 cbr 210 ------- 1 0.1 1073741824.0 2 2
- 1.0075 0 2 cbr 210 ------- 1 0.1 1073741824.0 2 2
+ 1.0075 0 3 cbr 210 ------- 1 0.1 1073741824.0 2 2
- 1.0075 0 3 cbr 210 ------- 1 0.1 1073741824.0 2 2
r 1.01112 0 1 cbr 210 ------- 1 0.1 1073741824.0 0 0
+ 1.01125 0 4 cbr 210 ------- 1 0.1 1073741824.0 3 3
- 1.01125 0 4 cbr 210 ------- 1 0.1 1073741824.0 3 3
+ 1.01125 0 1 cbr 210 ------- 1 0.1 1073741824.0 3 3
- 1.01125 0 1 cbr 210 ------- 1 0.1 1073741824.0 3 3
+ 1.01125 0 2 cbr 210 ------- 1 0.1 1073741824.0 3 3
- 1.01125 0 2 cbr 210 ------- 1 0.1 1073741824.0 3 3
+ 1.01125 0 3 cbr 210 ------- 1 0.1 1073741824.0 3 3
- 1.01125 0 3 cbr 210 ------- 1 0.1 1073741824.0 3 3
r 1.01487 0 1 cbr 210 ------- 1 0.1 1073741824.0 1 1
+ 1.015 0 4 cbr 210 ------- 1 0.1 1073741824.0 4 4
- 1.015 0 4 cbr 210 ------- 1 0.1 1073741824.0 4 4
+ 1.015 0 1 cbr 210 ------- 1 0.1 1073741824.0 4 4
- 1.015 0 1 cbr 210 ------- 1 0.1 1073741824.0 4 4
+ 1.015 0 2 cbr 210 ------- 1 0.1 1073741824.0 4 4
- 1.015 0 2 cbr 210 ------- 1 0.1 1073741824.0 4 4
+ 1.015 0 3 cbr 210 ------- 1 0.1 1073741824.0 4 4
- 1.015 0 3 cbr 210 ------- 1 0.1 1073741824.0 4 4
r 1.01862 0 1 cbr 210 ------- 1 0.1 1073741824.0 2 2
+ 1.01875 0 4 cbr 210 ------- 1 0.1 1073741824.0 5 5
- 1.01875 0 4 cbr 210 ------- 1 0.1 1073741824.0 5 5
+ 1.01875 0 1 cbr 210 ------- 1 0.1 1073741824.0 5 5
- 1.01875 0 1 cbr 210 ------- 1 0.1 1073741824.0 5 5
+ 1.01875 0 2 cbr 210 ------- 1 0.1 1073741824.0 5 5
- 1.01875 0 2 cbr 210 ------- 1 0.1 1073741824.0 5 5
+ 1.01875 0 3 cbr 210 ------- 1 0.1 1073741824.0 5 5
- 1.01875 0 3 cbr 210 ------- 1 0.1 1073741824.0 5 5
r 1.02237 0 1 cbr 210 ------- 1 0.1 1073741824.0 3 3
+ 1.0225 0 4 cbr 210 ------- 1 0.1 1073741824.0 6 6
- 1.0225 0 4 cbr 210 ------- 1 0.1 1073741824.0 6 6
+ 1.0225 0 1 cbr 210 ------- 1 0.1 1073741824.0 6 6
- 1.0225 0 1 cbr 210 ------- 1 0.1 1073741824.0 6 6
+ 1.0225 0 2 cbr 210 ------- 1 0.1 1073741824.0 6 6
- 1.0225 0 2 cbr 210 ------- 1 0.1 1073741824.0 6 6
+ 1.0225 0 3 cbr 210 ------- 1 0.1 1073741824.0 6 6
- 1.0225 0 3 cbr 210 ------- 1 0.1 1073741824.0 6 6
r 1.02612 0 1 cbr 210 ------- 1 0.1 1073741824.0 4 4
+ 1.02625 0 4 cbr 210 ------- 1 0.1 1073741824.0 7 7
- 1.02625 0 4 cbr 210 ------- 1 0.1 1073741824.0 7 7
+ 1.02625 0 1 cbr 210 ------- 1 0.1 1073741824.0 7 7
- 1.02625 0 1 cbr 210 ------- 1 0.1 1073741824.0 7 7
+ 1.02625 0 2 cbr 210 ------- 1 0.1 1073741824.0 7 7
- 1.02625 0 2 cbr 210 ------- 1 0.1 1073741824.0 7 7
+ 1.02625 0 3 cbr 210 ------- 1 0.1 1073741824.0 7 7
- 1.02625 0 3 cbr 210 ------- 1 0.1 1073741824.0 7 7
r 1.02987 0 1 cbr 210 ------- 1 0.1 1073741824.0 5 5
+ 1.03 0 4 cbr 210 ------- 1 0.1 1073741824.0 8 8
- 1.03 0 4 cbr 210 ------- 1 0.1 1073741824.0 8 8
+ 1.03 0 1 cbr 210 ------- 1 0.1 1073741824.0 8 8
- 1.03 0 1 cbr 210 ------- 1 0.1 1073741824.0 8 8
+ 1.03 0 2 cbr 210 ------- 1 0.1 1073741824.0 8 8
- 1.03 0 2 cbr 210 ------- 1 0.1 1073741824.0 8 8
+ 1.03 0 3 cbr 210 ------- 1 0.1 1073741824.0 8 8
- 1.03 0 3 cbr 210 ------- 1 0.1 1073741824.0 8 8
r 1.03336 0 4 cbr 210 ------- 1 0.1 1073741824.0 0 0
r 1.03362 0 1 cbr 210 ------- 1 0.1 1073741824.0 6 6
+ 1.03375 0 4 cbr 210 ------- 1 0.1 1073741824.0 9 9
- 1.03375 0 4 cbr 210 ------- 1 0.1 1073741824.0 9 9
+ 1.03375 0 1 cbr 210 ------- 1 0.1 1073741824.0 9 9
- 1.03375 0 1 cbr 210 ------- 1 0.1 1073741824.0 9 9
+ 1.03375 0 2 cbr 210 ------- 1 0.1 1073741824.0 9 9
- 1.03375 0 2 cbr 210 ------- 1 0.1 1073741824.0 9 9
+ 1.03375 0 3 cbr 210 ------- 1 0.1 1073741824.0 9 9
- 1.03375 0 3 cbr 210 ------- 1 0.1 1073741824.0 9 9
r 1.03711 0 4 cbr 210 ------- 1 0.1 1073741824.0 1 1
r 1.03737 0 1 cbr 210 ------- 1 0.1 1073741824.0 7 7
+ 1.0375 0 4 cbr 210 ------- 1 0.1 1073741824.0 10 10
- 1.0375 0 4 cbr 210 ------- 1 0.1 1073741824.0 10 10
+ 1.0375 0 1 cbr 210 ------- 1 0.1 1073741824.0 10 10
- 1.0375 0 1 cbr 210 ------- 1 0.1 1073741824.0 10 10
+ 1.0375 0 2 cbr 210 ------- 1 0.1 1073741824.0 10 10
- 1.0375 0 2 cbr 210 ------- 1 0.1 1073741824.0 10 10
+ 1.0375 0 3 cbr 210 ------- 1 0.1 1073741824.0 10 10
- 1.0375 0 3 cbr 210 ------- 1 0.1 1073741824.0 10 10
r 1.04086 0 4 cbr 210 ------- 1 0.1 1073741824.0 2 2
r 1.04112 0 1 cbr 210 ------- 1 0.1 1073741824.0 8 8
+ 1.04125 0 4 cbr 210 ------- 1 0.1 1073741824.0 11 11
- 1.04125 0 4 cbr 210 ------- 1 0.1 1073741824.0 11 11
+ 1.04125 0 1 cbr 210 ------- 1 0.1 1073741824.0 11 11
- 1.04125 0 1 cbr 210 ------- 1 0.1 1073741824.0 11 11
+ 1.04125 0 2 cbr 210 ------- 1 0.1 1073741824.0 11 11
- 1.04125 0 2 cbr 210 ------- 1 0.1 1073741824.0 11 11
+ 1.04125 0 3 cbr 210 ------- 1 0.1 1073741824.0 11 11
- 1.04125 0 3 cbr 210 ------- 1 0.1 1073741824.0 11 11
r 1.0421 0 2 cbr 210 ------- 1 0.1 1073741824.0 0 0
r 1.04461 0 4 cbr 210 ------- 1 0.1 1073741824.0 3 3
r 1.04487 0 1 cbr 210 ------- 1 0.1 1073741824.0 9 9
+ 1.045 0 4 cbr 210 ------- 1 0.1 1073741824.0 12 12
- 1.045 0 4 cbr 210 ------- 1 0.1 1073741824.0 12 12
+ 1.045 0 1 cbr 210 ------- 1 0.1 1073741824.0 12 12
- 1.045 0 1 cbr 210 ------- 1 0.1 1073741824.0 12 12
+ 1.045 0 2 cbr 210 ------- 1 0.1 1073741824.0 12 12
- 1.045 0 2 cbr 210 ------- 1 0.1 1073741824.0 12 12
+ 1.045 0 3 cbr 210 ------- 1 0.1 1073741824.0 12 12
- 1.045 0 3 cbr 210 ------- 1 0.1 1073741824.0 12 12
r 1.04585 0 2 cbr 210 ------- 1 0.1 1073741824.0 1 1
r 1.04836 0 4 cbr 210 ------- 1 0.1 1073741824.0 4 4
r 1.04862 0 1 cbr 210 ------- 1 0.1 1073741824.0 10 10
+ 1.04875 0 4 cbr 210 ------- 1 0.1 1073741824.0 13 13
- 1.04875 0 4 cbr 210 ------- 1 0.1 1073741824.0 13 13
+ 1.04875 0 1 cbr 210 ------- 1 0.1 1073741824.0 13 13
- 1.04875 0 1 cbr 210 ------- 1 0.1 1073741824.0 13 13
+ 1.04875 0 2 cbr 210 ------- 1 0.1 1073741824.0 13 13
- 1.04875 0 2 cbr 210 ------- 1 0.1 1073741824.0 13 13
+ 1.04875 0 3 cbr 210 ------- 1 0.1 1073741824.0 13 13
- 1.04875 0 3 cbr 210 ------- 1 0.1 1073741824.0 13 13
r 1.0496 0 2 cbr 210 ------- 1 0.1 1073741824.0 2 2
r 1.05211 0 4 cbr 210 ------- 1 0.1 1073741824.0 5 5
r 1.05237 0 1 cbr 210 ------- 1 0.1 1073741824.0 11 11
+ 1.0525 0 4 cbr 210 ------- 1 0.1 1073741824.0 14 14
- 1.0525 0 4 cbr 210 ------- 1 0.1 1073741824.0 14 14
+ 1.0525 0 1 cbr 210 ------- 1 0.1 1073741824.0 14 14
- 1.0525 0 1 cbr 210 ------- 1 0.1 1073741824.0 14 14
+ 1.0525 0 2 cbr 210 ------- 1 0.1 1073741824.0 14 14
- 1.0525 0 2 cbr 210 ------- 1 0.1 1073741824.0 14 14
+ 1.0525 0 3 cbr 210 ------- 1 0.1 1073741824.0 14 14
- 1.0525 0 3 cbr 210 ------- 1 0.1 1073741824.0 14 14
r 1.05335 0 2 cbr 210 ------- 1 0.1 1073741824.0 3 3
r 1.05586 0 4 cbr 210 ------- 1 0.1 1073741824.0 6 6
r 1.05612 0 1 cbr 210 ------- 1 0.1 1073741824.0 12 12
+ 1.05625 0 4 cbr 210 ------- 1 0.1 1073741824.0 15 15
- 1.05625 0 4 cbr 210 ------- 1 0.1 1073741824.0 15 15
+ 1.05625 0 1 cbr 210 ------- 1 0.1 1073741824.0 15 15
- 1.05625 0 1 cbr 210 ------- 1 0.1 1073741824.0 15 15
+ 1.05625 0 2 cbr 210 ------- 1 0.1 1073741824.0 15 15
- 1.05625 0 2 cbr 210 ------- 1 0.1 1073741824.0 15 15
+ 1.05625 0 3 cbr 210 ------- 1 0.1 1073741824.0 15 15
- 1.05625 0 3 cbr 210 ------- 1 0.1 1073741824.0 15 15
r 1.0571 0 2 cbr 210 ------- 1 0.1 1073741824.0 4 4
r 1.05961 0 4 cbr 210 ------- 1 0.1 1073741824.0 7 7
r 1.05987 0 1 cbr 210 ------- 1 0.1 1073741824.0 13 13
+ 1.06 0 4 cbr 210 ------- 1 0.1 1073741824.0 16 16
- 1.06 0 4 cbr 210 ------- 1 0.1 1073741824.0 16 16
+ 1.06 0 1 cbr 210 ------- 1 0.1 1073741824.0 16 16
- 1.06 0 1 cbr 210 ------- 1 0.1 1073741824.0 16 16
+ 1.06 0 2 cbr 210 ------- 1 0.1 1073741824.0 16 16
- 1.06 0 2 cbr 210 ------- 1 0.1 1073741824.0 16 16
+ 1.06 0 3 cbr 210 ------- 1 0.1 1073741824.0 16 16
- 1.06 0 3 cbr 210 ------- 1 0.1 1073741824.0 16 16
r 1.06085 0 2 cbr 210 ------- 1 0.1 1073741824.0 5 5
r 1.06336 0 4 cbr 210 ------- 1 0.1 1073741824.0 8 8
r 1.06362 0 1 cbr 210 ------- 1 0.1 1073741824.0 14 14
+ 1.06375 0 4 cbr 210 ------- 1 0.1 1073741824.0 17 17
- 1.06375 0 4 cbr 210 ------- 1 0.1 1073741824.0 17 17
+ 1.06375 0 1 cbr 210 ------- 1 0.1 1073741824.0 17 17
- 1.06375 0 1 cbr 210 ------- 1 0.1 1073741824.0 17 17
+ 1.06375 0 2 cbr 210 ------- 1 0.1 1073741824.0 17 17
- 1.06375 0 2 cbr 210 ------- 1 0.1 1073741824.0 17 17
+ 1.06375 0 3 cbr 210 ------- 1 0.1 1073741824.0 17 17
- 1.06375 0 3 cbr 210 ------- 1 0.1 1073741824.0 17 17
r 1.0646 0 2 cbr 210 ------- 1 0.1 1073741824.0 6 6
r 1.06711 0 4 cbr 210 ------- 1 0.1 1073741824.0 9 9
r 1.06737 0 1 cbr 210 ------- 1 0.1 1073741824.0 15 15
+ 1.0675 0 4 cbr 210 ------- 1 0.1 1073741824.0 18 18
- 1.0675 0 4 cbr 210 ------- 1 0.1 1073741824.0 18 18
+ 1.0675 0 1 cbr 210 ------- 1 0.1 1073741824.0 18 18
- 1.0675 0 1 cbr 210 ------- 1 0.1 1073741824.0 18 18
+ 1.0675 0 2 cbr 210 ------- 1 0.1 1073741824.0 18 18
- 1.0675 0 2 cbr 210 ------- 1 0.1 1073741824.0 18 18
+ 1.0675 0 3 cbr 210 ------- 1 0.1 1073741824.0 18 18
- 1.0675 0 3 cbr 210 ------- 1 0.1 1073741824.0 18 18
r 1.06835 0 2 cbr 210 ------- 1 0.1 1073741824.0 7 7
r 1.07086 0 4 cbr 210 ------- 1 0.1 1073741824.0 10 10
r 1.07112 0 1 cbr 210 ------- 1 0.1 1073741824.0 16 16
+ 1.07125 0 4 cbr 210 ------- 1 0.1 1073741824.0 19 19
- 1.07125 0 4 cbr 210 ------- 1 0.1 1073741824.0 19 19
+ 1.07125 0 1 cbr 210 ------- 1 0.1 1073741824.0 19 19
- 1.07125 0 1 cbr 210 ------- 1 0.1 1073741824.0 19 19
+ 1.07125 0 2 cbr 210 ------- 1 0.1 1073741824.0 19 19
- 1.07125 0 2 cbr 210 ------- 1 0.1 1073741824.0 19 19
+ 1.07125 0 3 cbr 210 ------- 1 0.1 1073741824.0 19 19
- 1.07125 0 3 cbr 210 ------- 1 0.1 1073741824.0 19 19
r 1.0721 0 2 cbr 210 ------- 1 0.1 1073741824.0 8 8
r 1.07461 0 4 cbr 210 ------- 1 0.1 1073741824.0 11 11
r 1.07487 0 1 cbr 210 ------- 1 0.1 1073741824.0 17 17
+ 1.075 0 4 cbr 210 ------- 1 0.1 1073741824.0 20 20
- 1.075 0 4 cbr 210 ------- 1 0.1 1073741824.0 20 20
+ 1.075 0 1 cbr 210 ------- 1 0.1 1073741824.0 20 20
- 1.075 0 1 cbr 210 ------- 1 0.1 1073741824.0 20 20
+ 1.075 0 2 cbr 210 ------- 1 0.1 1073741824.0 20 20
- 1.075 0 2 cbr 210 ------- 1 0.1 1073741824.0 20 20
+ 1.075 0 3 cbr 210 ------- 1 0.1 1073741824.0 20 20
- 1.075 0 3 cbr 210 ------- 1 0.1 1073741824.0 20 20
r 1.07585 0 2 cbr 210 ------- 1 0.1 1073741824.0 9 9
r 1.07836 0 4 cbr 210 ------- 1 0.1 1073741824.0 12 12
r 1.07862 0 1 cbr 210 ------- 1 0.1 1073741824.0 18 18
+ 1.07875 0 4 cbr 210 ------- 1 0.1 1073741824.0 21 21
- 1.07875 0 4 cbr 210 ------- 1 0.1 1073741824.0 21 21
+ 1.07875 0 1 cbr 210 ------- 1 0.1 1073741824.0 21 21
- 1.07875 0 1 cbr 210 ------- 1 0.1 1073741824.0 21 21
+ 1.07875 0 2 cbr 210 ------- 1 0.1 1073741824.0 21 21
- 1.07875 0 2 cbr 210 ------- 1 0.1 1073741824.0 21 21
+ 1.07875 0 3 cbr 210 ------- 1 0.1 1073741824.0 21 21
- 1.07875 0 3 cbr 210 ------- 1 0.1 1073741824.0 21 21
r 1.0796 0 2 cbr 210 ------- 1 0.1 1073741824.0 10 10
r 1.08211 0 4 cbr 210 ------- 1 0.1 1073741824.0 13 13
r 1.08237 0 1 cbr 210 ------- 1 0.1 1073741824.0 19 19
+ 1.0825 0 4 cbr 210 ------- 1 0.1 1073741824.0 22 22
- 1.0825 0 4 cbr 210 ------- 1 0.1 1073741824.0 22 22
+ 1.0825 0 1 cbr 210 ------- 1 0.1 1073741824.0 22 22
- 1.0825 0 1 cbr 210 ------- 1 0.1 1073741824.0 22 22
+ 1.0825 0 2 cbr 210 ------- 1 0.1 1073741824.0 22 22
- 1.0825 0 2 cbr 210 ------- 1 0.1 1073741824.0 22 22
+ 1.0825 0 3 cbr 210 ------- 1 0.1 1073741824.0 22 22
- 1.0825 0 3 cbr 210 ------- 1 0.1 1073741824.0 22 22
r 1.08335 0 2 cbr 210 ------- 1 0.1 1073741824.0 11 11
r 1.08586 0 4 cbr 210 ------- 1 0.1 1073741824.0 14 14
r 1.08612 0 1 cbr 210 ------- 1 0.1 1073741824.0 20 20
+ 1.08625 0 4 cbr 210 ------- 1 0.1 1073741824.0 23 23
- 1.08625 0 4 cbr 210 ------- 1 0.1 1073741824.0 23 23
+ 1.08625 0 1 cbr 210 ------- 1 0.1 1073741824.0 23 23
- 1.08625 0 1 cbr 210 ------- 1 0.1 1073741824.0 23 23
+ 1.08625 0 2 cbr 210 ------- 1 0.1 1073741824.0 23 23
- 1.08625 0 2 cbr 210 ------- 1 0.1 1073741824.0 23 23
+ 1.08625 0 3 cbr 210 ------- 1 0.1 1073741824.0 23 23
- 1.08625 0 3 cbr 210 ------- 1 0.1 1073741824.0 23 23
r 1.0871 0 2 cbr 210 ------- 1 0.1 1073741824.0 12 12
r 1.08961 0 4 cbr 210 ------- 1 0.1 1073741824.0 15 15
r 1.08987 0 1 cbr 210 ------- 1 0.1 1073741824.0 21 21
+ 1.09 0 4 cbr 210 ------- 1 0.1 1073741824.0 24 24
- 1.09 0 4 cbr 210 ------- 1 0.1 1073741824.0 24 24
+ 1.09 0 1 cbr 210 ------- 1 0.1 1073741824.0 24 24
- 1.09 0 1 cbr 210 ------- 1 0.1 1073741824.0 24 24
+ 1.09 0 2 cbr 210 ------- 1 0.1 1073741824.0 24 24
- 1.09 0 2 cbr 210 ------- 1 0.1 1073741824.0 24 24
+ 1.09 0 3 cbr 210 ------- 1 0.1 1073741824.0 24 24
- 1.09 0 3 cbr 210 ------- 1 0.1 1073741824.0 24 24
r 1.09085 0 2 cbr 210 ------- 1 0.1 1073741824.0 13 13
r 1.09336 0 4 cbr 210 ------- 1 0.1 1073741824.0 16 16
r 1.09362 0 1 cbr 210 ------- 1 0.1 1073741824.0 22 22
+ 1.09375 0 4 cbr 210 ------- 1 0.1 1073741824.0 25 25
- 1.09375 0 4 cbr 210 ------- 1 0.1 1073741824.0 25 25
+ 1.09375 0 1 cbr 210 ------- 1 0.1 1073741824.0 25 25
- 1.09375 0 1 cbr 210 ------- 1 0.1 1073741824.0 25 25
+ 1.09375 0 2 cbr 210 ------- 1 0.1 1073741824.0 25 25
- 1.09375 0 2 cbr 210 ------- 1 0.1 1073741824.0 25 25
+ 1.09375 0 3 cbr 210 ------- 1 0.1 1073741824.0 25 25
- 1.09375 0 3 cbr 210 ------- 1 0.1 1073741824.0 25 25
r 1.0946 0 2 cbr 210 ------- 1 0.1 1073741824.0 14 14
r 1.09711 0 4 cbr 210 ------- 1 0.1 1073741824.0 17 17
r 1.09737 0 1 cbr 210 ------- 1 0.1 1073741824.0 23 23
+ 1.0975 0 4 cbr 210 ------- 1 0.1 1073741824.0 26 26
- 1.0975 0 4 cbr 210 ------- 1 0.1 1073741824.0 26 26
+ 1.0975 0 1 cbr 210 ------- 1 0.1 1073741824.0 26 26
- 1.0975 0 1 cbr 210 ------- 1 0.1 1073741824.0 26 26
+ 1.0975 0 2 cbr 210 ------- 1 0.1 1073741824.0 26 26
- 1.0975 0 2 cbr 210 ------- 1 0.1 1073741824.0 26 26
+ 1.0975 0 3 cbr 210 ------- 1 0.1 1073741824.0 26 26
- 1.0975 0 3 cbr 210 ------- 1 0.1 1073741824.0 26 26
r 1.09835 0 2 cbr 210 ------- 1 0.1 1073741824.0 15 15
r 1.10086 0 4 cbr 210 ------- 1 0.1 1073741824.0 18 18
r 1.10112 0 1 cbr 210 ------- 1 0.1 1073741824.0 24 24
+ 1.10125 0 4 cbr 210 ------- 1 0.1 1073741824.0 27 27
- 1.10125 0 4 cbr 210 ------- 1 0.1 1073741824.0 27 27
+ 1.10125 0 1 cbr 210 ------- 1 0.1 1073741824.0 27 27
- 1.10125 0 1 cbr 210 ------- 1 0.1 1073741824.0 27 27
+ 1.10125 0 2 cbr 210 ------- 1 0.1 1073741824.0 27 27
- 1.10125 0 2 cbr 210 ------- 1 0.1 1073741824.0 27 27
+ 1.10125 0 3 cbr 210 ------- 1 0.1 1073741824.0 27 27
- 1.10125 0 3 cbr 210 ------- 1 0.1 1073741824.0 27 27
r 1.10168 0 3 cbr 210 ------- 1 0.1 1073741824.0 0 0
r 1.1021 0 2 cbr 210 ------- 1 0.1 1073741824.0 16 16
r 1.10461 0 4 cbr 210 ------- 1 0.1 1073741824.0 19 19
r 1.10487 0 1 cbr 210 ------- 1 0.1 1073741824.0 25 25
+ 1.105 0 4 cbr 210 ------- 1 0.1 1073741824.0 28 28
- 1.105 0 4 cbr 210 ------- 1 0.1 1073741824.0 28 28
+ 1.105 0 1 cbr 210 ------- 1 0.1 1073741824.0 28 28
- 1.105 0 1 cbr 210 ------- 1 0.1 1073741824.0 28 28
+ 1.105 0 2 cbr 210 ------- 1 0.1 1073741824.0 28 28
- 1.105 0 2 cbr 210 ------- 1 0.1 1073741824.0 28 28
+ 1.105 0 3 cbr 210 ------- 1 0.1 1073741824.0 28 28
- 1.105 0 3 cbr 210 ------- 1 0.1 1073741824.0 28 28
r 1.10543 0 3 cbr 210 ------- 1 0.1 1073741824.0 1 1
r 1.10585 0 2 cbr 210 ------- 1 0.1 1073741824.0 17 17
r 1.10836 0 4 cbr 210 ------- 1 0.1 1073741824.0 20 20
r 1.10862 0 1 cbr 210 ------- 1 0.1 1073741824.0 26 26
+ 1.10875 0 4 cbr 210 ------- 1 0.1 1073741824.0 29 29
- 1.10875 0 4 cbr 210 ------- 1 0.1 1073741824.0 29 29
+ 1.10875 0 1 cbr 210 ------- 1 0.1 1073741824.0 29 29
- 1.10875 0 1 cbr 210 ------- 1 0.1 1073741824.0 29 29
+ 1.10875 0 2 cbr 210 ------- 1 0.1 1073741824.0 29 29
- 1.10875 0 2 cbr 210 ------- 1 0.1 1073741824.0 29 29
+ 1.10875 0 3 cbr 210 ------- 1 0.1 1073741824.0 29 29
- 1.10875 0 3 cbr 210 ------- 1 0.1 1073741824.0 29 29
r 1.10918 0 3 cbr 210 ------- 1 0.1 1073741824.0 2 2
r 1.1096 0 2 cbr 210 ------- 1 0.1 1073741824.0 18 18
r 1.11211 0 4 cbr 210 ------- 1 0.1 1073741824.0 21 21
r 1.11237 0 1 cbr 210 ------- 1 0.1 1073741824.0 27 27
+ 1.1125 0 4 cbr 210 ------- 1 0.1 1073741824.0 30 30
- 1.1125 0 4 cbr 210 ------- 1 0.1 1073741824.0 30 30
+ 1.1125 0 1 cbr 210 ------- 1 0.1 1073741824.0 30 30
- 1.1125 0 1 cbr 210 ------- 1 0.1 1073741824.0 30 30
+ 1.1125 0 2 cbr 210 ------- 1 0.1 1073741824.0 30 30
- 1.1125 0 2 cbr 210 ------- 1 0.1 1073741824.0 30 30
+ 1.1125 0 3 cbr 210 ------- 1 0.1 1073741824.0 30 30
- 1.1125 0 3 cbr 210 ------- 1 0.1 1073741824.0 30 30
r 1.11293 0 3 cbr 210 ------- 1 0.1 1073741824.0 3 3
r 1.11335 0 2 cbr 210 ------- 1 0.1 1073741824.0 19 19
r 1.11586 0 4 cbr 210 ------- 1 0.1 1073741824.0 22 22
r 1.11612 0 1 cbr 210 ------- 1 0.1 1073741824.0 28 28
+ 1.11625 0 4 cbr 210 ------- 1 0.1 1073741824.0 31 31
- 1.11625 0 4 cbr 210 ------- 1 0.1 1073741824.0 31 31
+ 1.11625 0 1 cbr 210 ------- 1 0.1 1073741824.0 31 31
- 1.11625 0 1 cbr 210 ------- 1 0.1 1073741824.0 31 31
+ 1.11625 0 2 cbr 210 ------- 1 0.1 1073741824.0 31 31
- 1.11625 0 2 cbr 210 ------- 1 0.1 1073741824.0 31 31
+ 1.11625 0 3 cbr 210 ------- 1 0.1 1073741824.0 31 31
- 1.11625 0 3 cbr 210 ------- 1 0.1 1073741824.0 31 31
r 1.11668 0 3 cbr 210 ------- 1 0.1 1073741824.0 4 4
r 1.1171 0 2 cbr 210 ------- 1 0.1 1073741824.0 20 20
r 1.11961 0 4 cbr 210 ------- 1 0.1 1073741824.0 23 23
r 1.11987 0 1 cbr 210 ------- 1 0.1 1073741824.0 29 29
+ 1.12 0 4 cbr 210 ------- 1 0.1 1073741824.0 32 32
- 1.12 0 4 cbr 210 ------- 1 0.1 1073741824.0 32 32
+ 1.12 0 1 cbr 210 ------- 1 0.1 1073741824.0 32 32
- 1.12 0 1 cbr 210 ------- 1 0.1 1073741824.0 32 32
+ 1.12 0 2 cbr 210 ------- 1 0.1 1073741824.0 32 32
- 1.12 0 2 cbr 210 ------- 1 0.1 1073741824.0 32 32
+ 1.12 0 3 cbr 210 ------- 1 0.1 1073741824.0 32 32
- 1.12 0 3 cbr 210 ------- 1 0.1 1073741824.0 32 32
r 1.12043 0 3 cbr 210 ------- 1 0.1 1073741824.0 5 5
r 1.12085 0 2 cbr 210 ------- 1 0.1 1073741824.0 21 21
r 1.12336 0 4 cbr 210 ------- 1 0.1 1073741824.0 24 24
r 1.12362 0 1 cbr 210 ------- 1 0.1 1073741824.0 30 30
+ 1.12375 0 4 cbr 210 ------- 1 0.1 1073741824.0 33 33
- 1.12375 0 4 cbr 210 ------- 1 0.1 1073741824.0 33 33
+ 1.12375 0 1 cbr 210 ------- 1 0.1 1073741824.0 33 33
- 1.12375 0 1 cbr 210 ------- 1 0.1 1073741824.0 33 33
+ 1.12375 0 2 cbr 210 ------- 1 0.1 1073741824.0 33 33
- 1.12375 0 2 cbr 210 ------- 1 0.1 1073741824.0 33 33
+ 1.12375 0 3 cbr 210 ------- 1 0.1 1073741824.0 33 33
- 1.12375 0 3 cbr 210 ------- 1 0.1 1073741824.0 33 33
r 1.12418 0 3 cbr 210 ------- 1 0.1 1073741824.0 6 6
r 1.1246 0 2 cbr 210 ------- 1 0.1 1073741824.0 22 22
r 1.12711 0 4 cbr 210 ------- 1 0.1 1073741824.0 25 25
r 1.12737 0 1 cbr 210 ------- 1 0.1 1073741824.0 31 31
+ 1.1275 0 4 cbr 210 ------- 1 0.1 1073741824.0 34 34
- 1.1275 0 4 cbr 210 ------- 1 0.1 1073741824.0 34 34
+ 1.1275 0 1 cbr 210 ------- 1 0.1 1073741824.0 34 34
- 1.1275 0 1 cbr 210 ------- 1 0.1 1073741824.0 34 34
+ 1.1275 0 2 cbr 210 ------- 1 0.1 1073741824.0 34 34
- 1.1275 0 2 cbr 210 ------- 1 0.1 1073741824.0 34 34
+ 1.1275 0 3 cbr 210 ------- 1 0.1 1073741824.0 34 34
- 1.1275 0 3 cbr 210 ------- 1 0.1 1073741824.0 34 34
r 1.12793 0 3 cbr 210 ------- 1 0.1 1073741824.0 7 7
r 1.12835 0 2 cbr 210 ------- 1 0.1 1073741824.0 23 23
r 1.13086 0 4 cbr 210 ------- 1 0.1 1073741824.0 26 26
r 1.13112 0 1 cbr 210 ------- 1 0.1 1073741824.0 32 32
+ 1.13125 0 4 cbr 210 ------- 1 0.1 1073741824.0 35 35
- 1.13125 0 4 cbr 210 ------- 1 0.1 1073741824.0 35 35
+ 1.13125 0 1 cbr 210 ------- 1 0.1 1073741824.0 35 35
- 1.13125 0 1 cbr 210 ------- 1 0.1 1073741824.0 35 35
+ 1.13125 0 2 cbr 210 ------- 1 0.1 1073741824.0 35 35
- 1.13125 0 2 cbr 210 ------- 1 0.1 1073741824.0 35 35
+ 1.13125 0 3 cbr 210 ------- 1 0.1 1073741824.0 35 35
- 1.13125 0 3 cbr 210 ------- 1 0.1 1073741824.0 35 35
r 1.13168 0 3 cbr 210 ------- 1 0.1 1073741824.0 8 8
r 1.1321 0 2 cbr 210 ------- 1 0.1 1073741824.0 24 24
r 1.13461 0 4 cbr 210 ------- 1 0.1 1073741824.0 27 27
r 1.13487 0 1 cbr 210 ------- 1 0.1 1073741824.0 33 33
+ 1.135 0 4 cbr 210 ------- 1 0.1 1073741824.0 36 36
- 1.135 0 4 cbr 210 ------- 1 0.1 1073741824.0 36 36
+ 1.135 0 1 cbr 210 ------- 1 0.1 1073741824.0 36 36
- 1.135 0 1 cbr 210 ------- 1 0.1 1073741824.0 36 36
+ 1.135 0 2 cbr 210 ------- 1 0.1 1073741824.0 36 36
- 1.135 0 2 cbr 210 ------- 1 0.1 1073741824.0 36 36
+ 1.135 0 3 cbr 210 ------- 1 0.1 1073741824.0 36 36
- 1.135 0 3 cbr 210 ------- 1 0.1 1073741824.0 36 36
r 1.13543 0 3 cbr 210 ------- 1 0.1 1073741824.0 9 9
r 1.13585 0 2 cbr 210 ------- 1 0.1 1073741824.0 25 25
r 1.13836 0 4 cbr 210 ------- 1 0.1 1073741824.0 28 28
r 1.13862 0 1 cbr 210 ------- 1 0.1 1073741824.0 34 34
+ 1.13875 0 4 cbr 210 ------- 1 0.1 1073741824.0 37 37
- 1.13875 0 4 cbr 210 ------- 1 0.1 1073741824.0 37 37
+ 1.13875 0 1 cbr 210 ------- 1 0.1 1073741824.0 37 37
- 1.13875 0 1 cbr 210 ------- 1 0.1 1073741824.0 37 37
+ 1.13875 0 2 cbr 210 ------- 1 0.1 1073741824.0 37 37
- 1.13875 0 2 cbr 210 ------- 1 0.1 1073741824.0 37 37
+ 1.13875 0 3 cbr 210 ------- 1 0.1 1073741824.0 37 37
- 1.13875 0 3 cbr 210 ------- 1 0.1 1073741824.0 37 37
r 1.13918 0 3 cbr 210 ------- 1 0.1 1073741824.0 10 10
r 1.1396 0 2 cbr 210 ------- 1 0.1 1073741824.0 26 26
r 1.14211 0 4 cbr 210 ------- 1 0.1 1073741824.0 29 29
r 1.14237 0 1 cbr 210 ------- 1 0.1 1073741824.0 35 35
+ 1.1425 0 4 cbr 210 ------- 1 0.1 1073741824.0 38 38
- 1.1425 0 4 cbr 210 ------- 1 0.1 1073741824.0 38 38
+ 1.1425 0 1 cbr 210 ------- 1 0.1 1073741824.0 38 38
- 1.1425 0 1 cbr 210 ------- 1 0.1 1073741824.0 38 38
+ 1.1425 0 2 cbr 210 ------- 1 0.1 1073741824.0 38 38
- 1.1425 0 2 cbr 210 ------- 1 0.1 1073741824.0 38 38
+ 1.1425 0 3 cbr 210 ------- 1 0.1 1073741824.0 38 38
- 1.1425 0 3 cbr 210 ------- 1 0.1 1073741824.0 38 38
r 1.14293 0 3 cbr 210 ------- 1 0.1 1073741824.0 11 11
r 1.14335 0 2 cbr 210 ------- 1 0.1 1073741824.0 27 27
r 1.14586 0 4 cbr 210 ------- 1 0.1 1073741824.0 30 30
r 1.14612 0 1 cbr 210 ------- 1 0.1 1073741824.0 36 36
+ 1.14625 0 4 cbr 210 ------- 1 0.1 1073741824.0 39 39
- 1.14625 0 4 cbr 210 ------- 1 0.1 1073741824.0 39 39
+ 1.14625 0 1 cbr 210 ------- 1 0.1 1073741824.0 39 39
- 1.14625 0 1 cbr 210 ------- 1 0.1 1073741824.0 39 39
+ 1.14625 0 2 cbr 210 ------- 1 0.1 1073741824.0 39 39
- 1.14625 0 2 cbr 210 ------- 1 0.1 1073741824.0 39 39
+ 1.14625 0 3 cbr 210 ------- 1 0.1 1073741824.0 39 39
- 1.14625 0 3 cbr 210 ------- 1 0.1 1073741824.0 39 39
r 1.14668 0 3 cbr 210 ------- 1 0.1 1073741824.0 12 12
r 1.1471 0 2 cbr 210 ------- 1 0.1 1073741824.0 28 28
r 1.14961 0 4 cbr 210 ------- 1 0.1 1073741824.0 31 31
r 1.14987 0 1 cbr 210 ------- 1 0.1 1073741824.0 37 37
+ 1.15 0 4 cbr 210 ------- 1 0.1 1073741824.0 40 40
- 1.15 0 4 cbr 210 ------- 1 0.1 1073741824.0 40 40
+ 1.15 0 1 cbr 210 ------- 1 0.1 1073741824.0 40 40
- 1.15 0 1 cbr 210 ------- 1 0.1 1073741824.0 40 40
+ 1.15 0 2 cbr 210 ------- 1 0.1 1073741824.0 40 40
- 1.15 0 2 cbr 210 ------- 1 0.1 1073741824.0 40 40
+ 1.15 0 3 cbr 210 ------- 1 0.1 1073741824.0 40 40
- 1.15 0 3 cbr 210 ------- 1 0.1 1073741824.0 40 40
r 1.15043 0 3 cbr 210 ------- 1 0.1 1073741824.0 13 13
r 1.15085 0 2 cbr 210 ------- 1 0.1 1073741824.0 29 29
r 1.15336 0 4 cbr 210 ------- 1 0.1 1073741824.0 32 32
r 1.15362 0 1 cbr 210 ------- 1 0.1 1073741824.0 38 38
+ 1.15375 0 4 cbr 210 ------- 1 0.1 1073741824.0 41 41
- 1.15375 0 4 cbr 210 ------- 1 0.1 1073741824.0 41 41
+ 1.15375 0 1 cbr 210 ------- 1 0.1 1073741824.0 41 41
- 1.15375 0 1 cbr 210 ------- 1 0.1 1073741824.0 41 41
+ 1.15375 0 2 cbr 210 ------- 1 0.1 1073741824.0 41 41
- 1.15375 0 2 cbr 210 ------- 1 0.1 1073741824.0 41 41
+ 1.15375 0 3 cbr 210 ------- 1 0.1 1073741824.0 41 41
- 1.15375 0 3 cbr 210 ------- 1 0.1 1073741824.0 41 41
r 1.15418 0 3 cbr 210 ------- 1 0.1 1073741824.0 14 14
r 1.1546 0 2 cbr 210 ------- 1 0.1 1073741824.0 30 30
r 1.15711 0 4 cbr 210 ------- 1 0.1 1073741824.0 33 33
r 1.15737 0 1 cbr 210 ------- 1 0.1 1073741824.0 39 39
+ 1.1575 0 4 cbr 210 ------- 1 0.1 1073741824.0 42 42
- 1.1575 0 4 cbr 210 ------- 1 0.1 1073741824.0 42 42
+ 1.1575 0 1 cbr 210 ------- 1 0.1 1073741824.0 42 42
- 1.1575 0 1 cbr 210 ------- 1 0.1 1073741824.0 42 42
+ 1.1575 0 2 cbr 210 ------- 1 0.1 1073741824.0 42 42
- 1.1575 0 2 cbr 210 ------- 1 0.1 1073741824.0 42 42
+ 1.1575 0 3 cbr 210 ------- 1 0.1 1073741824.0 42 42
- 1.1575 0 3 cbr 210 ------- 1 0.1 1073741824.0 42 42
r 1.15793 0 3 cbr 210 ------- 1 0.1 1073741824.0 15 15
r 1.15835 0 2 cbr 210 ------- 1 0.1 1073741824.0 31 31
r 1.16086 0 4 cbr 210 ------- 1 0.1 1073741824.0 34 34
r 1.16112 0 1 cbr 210 ------- 1 0.1 1073741824.0 40 40
+ 1.16125 0 4 cbr 210 ------- 1 0.1 1073741824.0 43 43
- 1.16125 0 4 cbr 210 ------- 1 0.1 1073741824.0 43 43
+ 1.16125 0 1 cbr 210 ------- 1 0.1 1073741824.0 43 43
- 1.16125 0 1 cbr 210 ------- 1 0.1 1073741824.0 43 43
+ 1.16125 0 2 cbr 210 ------- 1 0.1 1073741824.0 43 43
- 1.16125 0 2 cbr 210 ------- 1 0.1 1073741824.0 43 43
+ 1.16125 0 3 cbr 210 ------- 1 0.1 1073741824.0 43 43
- 1.16125 0 3 cbr 210 ------- 1 0.1 1073741824.0 43 43
r 1.16168 0 3 cbr 210 ------- 1 0.1 1073741824.0 16 16
r 1.1621 0 2 cbr 210 ------- 1 0.1 1073741824.0 32 32
r 1.16461 0 4 cbr 210 ------- 1 0.1 1073741824.0 35 35
r 1.16487 0 1 cbr 210 ------- 1 0.1 1073741824.0 41 41
+ 1.165 0 4 cbr 210 ------- 1 0.1 1073741824.0 44 44
- 1.165 0 4 cbr 210 ------- 1 0.1 1073741824.0 44 44
+ 1.165 0 1 cbr 210 ------- 1 0.1 1073741824.0 44 44
- 1.165 0 1 cbr 210 ------- 1 0.1 1073741824.0 44 44
+ 1.165 0 2 cbr 210 ------- 1 0.1 1073741824.0 44 44
- 1.165 0 2 cbr 210 ------- 1 0.1 1073741824.0 44 44
+ 1.165 0 3 cbr 210 ------- 1 0.1 1073741824.0 44 44
- 1.165 0 3 cbr 210 ------- 1 0.1 1073741824.0 44 44
r 1.16543 0 3 cbr 210 ------- 1 0.1 1073741824.0 17 17
r 1.16585 0 2 cbr 210 ------- 1 0.1 1073741824.0 33 33
r 1.16836 0 4 cbr 210 ------- 1 0.1 1073741824.0 36 36
r 1.16862 0 1 cbr 210 ------- 1 0.1 1073741824.0 42 42
+ 1.16875 0 4 cbr 210 ------- 1 0.1 1073741824.0 45 45
- 1.16875 0 4 cbr 210 ------- 1 0.1 1073741824.0 45 45
+ 1.16875 0 1 cbr 210 ------- 1 0.1 1073741824.0 45 45
- 1.16875 0 1 cbr 210 ------- 1 0.1 1073741824.0 45 45
+ 1.16875 0 2 cbr 210 ------- 1 0.1 1073741824.0 45 45
- 1.16875 0 2 cbr 210 ------- 1 0.1 1073741824.0 45 45
+ 1.16875 0 3 cbr 210 ------- 1 0.1 1073741824.0 45 45
- 1.16875 0 3 cbr 210 ------- 1 0.1 1073741824.0 45 45
r 1.16918 0 3 cbr 210 ------- 1 0.1 1073741824.0 18 18
r 1.1696 0 2 cbr 210 ------- 1 0.1 1073741824.0 34 34
r 1.17211 0 4 cbr 210 ------- 1 0.1 1073741824.0 37 37
r 1.17237 0 1 cbr 210 ------- 1 0.1 1073741824.0 43 43
+ 1.1725 0 4 cbr 210 ------- 1 0.1 1073741824.0 46 46
- 1.1725 0 4 cbr 210 ------- 1 0.1 1073741824.0 46 46
+ 1.1725 0 1 cbr 210 ------- 1 0.1 1073741824.0 46 46
- 1.1725 0 1 cbr 210 ------- 1 0.1 1073741824.0 46 46
+ 1.1725 0 2 cbr 210 ------- 1 0.1 1073741824.0 46 46
- 1.1725 0 2 cbr 210 ------- 1 0.1 1073741824.0 46 46
+ 1.1725 0 3 cbr 210 ------- 1 0.1 1073741824.0 46 46
- 1.1725 0 3 cbr 210 ------- 1 0.1 1073741824.0 46 46
r 1.17293 0 3 cbr 210 ------- 1 0.1 1073741824.0 19 19
r 1.17335 0 2 cbr 210 ------- 1 0.1 1073741824.0 35 35
r 1.17586 0 4 cbr 210 ------- 1 0.1 1073741824.0 38 38
r 1.17612 0 1 cbr 210 ------- 1 0.1 1073741824.0 44 44
+ 1.17625 0 4 cbr 210 ------- 1 0.1 1073741824.0 47 47
- 1.17625 0 4 cbr 210 ------- 1 0.1 1073741824.0 47 47
+ 1.17625 0 1 cbr 210 ------- 1 0.1 1073741824.0 47 47
- 1.17625 0 1 cbr 210 ------- 1 0.1 1073741824.0 47 47
+ 1.17625 0 2 cbr 210 ------- 1 0.1 1073741824.0 47 47
- 1.17625 0 2 cbr 210 ------- 1 0.1 1073741824.0 47 47
+ 1.17625 0 3 cbr 210 ------- 1 0.1 1073741824.0 47 47
- 1.17625 0 3 cbr 210 ------- 1 0.1 1073741824.0 47 47
r 1.17668 0 3 cbr 210 ------- 1 0.1 1073741824.0 20 20
r 1.1771 0 2 cbr 210 ------- 1 0.1 1073741824.0 36 36
r 1.17961 0 4 cbr 210 ------- 1 0.1 1073741824.0 39 39
r 1.17987 0 1 cbr 210 ------- 1 0.1 1073741824.0 45 45
+ 1.18 0 4 cbr 210 ------- 1 0.1 1073741824.0 48 48
- 1.18 0 4 cbr 210 ------- 1 0.1 1073741824.0 48 48
+ 1.18 0 1 cbr 210 ------- 1 0.1 1073741824.0 48 48
- 1.18 0 1 cbr 210 ------- 1 0.1 1073741824.0 48 48
+ 1.18 0 2 cbr 210 ------- 1 0.1 1073741824.0 48 48
- 1.18 0 2 cbr 210 ------- 1 0.1 1073741824.0 48 48
+ 1.18 0 3 cbr 210 ------- 1 0.1 1073741824.0 48 48
- 1.18 0 3 cbr 210 ------- 1 0.1 1073741824.0 48 48
r 1.18043 0 3 cbr 210 ------- 1 0.1 1073741824.0 21 21
r 1.18085 0 2 cbr 210 ------- 1 0.1 1073741824.0 37 37
r 1.18336 0 4 cbr 210 ------- 1 0.1 1073741824.0 40 40
r 1.18362 0 1 cbr 210 ------- 1 0.1 1073741824.0 46 46
+ 1.18375 0 4 cbr 210 ------- 1 0.1 1073741824.0 49 49
- 1.18375 0 4 cbr 210 ------- 1 0.1 1073741824.0 49 49
+ 1.18375 0 1 cbr 210 ------- 1 0.1 1073741824.0 49 49
- 1.18375 0 1 cbr 210 ------- 1 0.1 1073741824.0 49 49
+ 1.18375 0 2 cbr 210 ------- 1 0.1 1073741824.0 49 49
- 1.18375 0 2 cbr 210 ------- 1 0.1 1073741824.0 49 49
+ 1.18375 0 3 cbr 210 ------- 1 0.1 1073741824.0 49 49
- 1.18375 0 3 cbr 210 ------- 1 0.1 1073741824.0 49 49
r 1.18418 0 3 cbr 210 ------- 1 0.1 1073741824.0 22 22
r 1.1846 0 2 cbr 210 ------- 1 0.1 1073741824.0 38 38
r 1.18711 0 4 cbr 210 ------- 1 0.1 1073741824.0 41 41