+ 0.1 1 2 cbr 1000 ------- 2 1.0 5.0 0 0
- 0.1 1 2 cbr 1000 ------- 2 1.0 5.0 0 0
r 0.114 1 2 cbr 1000 ------- 2 1.0 5.0 0 0
+ 0.114 2 3 cbr 1000 ------- 2 1.0 5.0 0 0
- 0.114 2 3 cbr 1000 ------- 2 1.0 5.0 0 0
r 0.240667 2 3 cbr 1000 ------- 2 1.0 5.0 0 0
h 0.240667 3 6 cbr 1000 ------- 2 1.0 5.0 0 0
+ 0.280667 3 6 cbr 1000 ------- 2 1.0 5.0 0 0
- 0.280667 3 6 cbr 1000 ------- 2 1.0 5.0 0 0
d 0.280671 4 6 cbr 1000 ------- 2 1.0 5.0 0 0
r 0.320671 6 5 cbr 1000 ------- 2 1.0 5.0 0 0
+ 0.9 1 2 cbr 1000 ------- 2 1.0 5.0 1 1
- 0.9 1 2 cbr 1000 ------- 2 1.0 5.0 1 1
r 0.914 1 2 cbr 1000 ------- 2 1.0 5.0 1 1
+ 0.914 2 3 cbr 1000 ------- 2 1.0 5.0 1 1
- 0.914 2 3 cbr 1000 ------- 2 1.0 5.0 1 1
+ 1 0 2 tcp 40 ------- 1 0.0 4.0 0 2
- 1 0 2 tcp 40 ------- 1 0.0 4.0 0 2
r 1.01016 0 2 tcp 40 ------- 1 0.0 4.0 0 2
+ 1.01016 2 3 tcp 40 ------- 1 0.0 4.0 0 2
- 1.01016 2 3 tcp 40 ------- 1 0.0 4.0 0 2
r 1.040667 2 3 cbr 1000 ------- 2 1.0 5.0 1 1
h 1.040667 3 6 cbr 1000 ------- 2 1.0 5.0 1 1
+ 1.080667 3 6 cbr 1000 ------- 2 1.0 5.0 1 1
- 1.080667 3 6 cbr 1000 ------- 2 1.0 5.0 1 1
d 1.080671 4 6 cbr 1000 ------- 2 1.0 5.0 1 1
r 1.111227 2 3 tcp 40 ------- 1 0.0 4.0 0 2
h 1.111227 3 6 tcp 40 ------- 1 0.0 4.0 0 2
r 1.120671 6 5 cbr 1000 ------- 2 1.0 5.0 1 1
+ 1.151227 3 6 tcp 40 ------- 1 0.0 4.0 0 2
- 1.151227 3 6 tcp 40 ------- 1 0.0 4.0 0 2
d 1.151231 5 6 tcp 40 ------- 1 0.0 4.0 0 2
r 1.191231 6 4 tcp 40 ------- 1 0.0 4.0 0 2
h 1.191231 4 6 ack 40 ------- 1 4.0 0.0 0 3
+ 1.231231 4 6 ack 40 ------- 1 4.0 0.0 0 3
- 1.231231 4 6 ack 40 ------- 1 4.0 0.0 0 3
d 1.231235 5 6 ack 40 ------- 1 4.0 0.0 0 3
r 1.271235 6 3 ack 40 ------- 1 4.0 0.0 0 3
+ 1.271235 3 2 ack 40 ------- 1 4.0 0.0 0 3
- 1.271235 3 2 ack 40 ------- 1 4.0 0.0 0 3
r 1.372301 3 2 ack 40 ------- 1 4.0 0.0 0 3
+ 1.372301 2 0 ack 40 ------- 1 4.0 0.0 0 3
- 1.372301 2 0 ack 40 ------- 1 4.0 0.0 0 3
r 1.382461 2 0 ack 40 ------- 1 4.0 0.0 0 3
+ 1.382461 0 2 tcp 1040 ------- 1 0.0 4.0 1 4
- 1.382461 0 2 tcp 1040 ------- 1 0.0 4.0 1 4
+ 1.382461 0 2 tcp 1040 ------- 1 0.0 4.0 2 5
- 1.386621 0 2 tcp 1040 ------- 1 0.0 4.0 2 5
r 1.396621 0 2 tcp 1040 ------- 1 0.0 4.0 1 4
+ 1.396621 2 3 tcp 1040 ------- 1 0.0 4.0 1 4
- 1.396621 2 3 tcp 1040 ------- 1 0.0 4.0 1 4
r 1.400781 0 2 tcp 1040 ------- 1 0.0 4.0 2 5
+ 1.400781 2 3 tcp 1040 ------- 1 0.0 4.0 2 5
- 1.424355 2 3 tcp 1040 ------- 1 0.0 4.0 2 5
r 1.524355 2 3 tcp 1040 ------- 1 0.0 4.0 1 4
h 1.524355 3 6 tcp 1040 ------- 1 0.0 4.0 1 4
r 1.552088 2 3 tcp 1040 ------- 1 0.0 4.0 2 5
h 1.552088 3 6 tcp 1040 ------- 1 0.0 4.0 2 5
+ 1.564355 3 6 tcp 1040 ------- 1 0.0 4.0 1 4
- 1.564355 3 6 tcp 1040 ------- 1 0.0 4.0 1 4
d 1.564359 5 6 tcp 1040 ------- 1 0.0 4.0 1 4
+ 1.592088 3 6 tcp 1040 ------- 1 0.0 4.0 2 5
- 1.592088 3 6 tcp 1040 ------- 1 0.0 4.0 2 5
d 1.592092 5 6 tcp 1040 ------- 1 0.0 4.0 2 5
r 1.604359 6 4 tcp 1040 ------- 1 0.0 4.0 1 4
r 1.632092 6 4 tcp 1040 ------- 1 0.0 4.0 2 5
h 1.632092 4 6 ack 40 ------- 1 4.0 0.0 2 6
+ 1.672092 4 6 ack 40 ------- 1 4.0 0.0 2 6
- 1.672092 4 6 ack 40 ------- 1 4.0 0.0 2 6
d 1.672096 5 6 ack 40 ------- 1 4.0 0.0 2 6
+ 1.7 1 2 cbr 1000 ------- 2 1.0 5.0 2 7
- 1.7 1 2 cbr 1000 ------- 2 1.0 5.0 2 7
r 1.712096 6 3 ack 40 ------- 1 4.0 0.0 2 6
+ 1.712096 3 2 ack 40 ------- 1 4.0 0.0 2 6
- 1.712096 3 2 ack 40 ------- 1 4.0 0.0 2 6
r 1.714 1 2 cbr 1000 ------- 2 1.0 5.0 2 7
+ 1.714 2 3 cbr 1000 ------- 2 1.0 5.0 2 7
- 1.714 2 3 cbr 1000 ------- 2 1.0 5.0 2 7
r 1.813163 3 2 ack 40 ------- 1 4.0 0.0 2 6
+ 1.813163 2 0 ack 40 ------- 1 4.0 0.0 2 6
- 1.813163 2 0 ack 40 ------- 1 4.0 0.0 2 6
r 1.823323 2 0 ack 40 ------- 1 4.0 0.0 2 6
+ 1.823323 0 2 tcp 1040 ------- 1 0.0 4.0 3 8
- 1.823323 0 2 tcp 1040 ------- 1 0.0 4.0 3 8
+ 1.823323 0 2 tcp 1040 ------- 1 0.0 4.0 4 9
+ 1.823323 0 2 tcp 1040 ------- 1 0.0 4.0 5 10
- 1.827483 0 2 tcp 1040 ------- 1 0.0 4.0 4 9
- 1.831643 0 2 tcp 1040 ------- 1 0.0 4.0 5 10
r 1.837483 0 2 tcp 1040 ------- 1 0.0 4.0 3 8
+ 1.837483 2 3 tcp 1040 ------- 1 0.0 4.0 3 8
- 1.837483 2 3 tcp 1040 ------- 1 0.0 4.0 3 8
r 1.840667 2 3 cbr 1000 ------- 2 1.0 5.0 2 7
h 1.840667 3 6 cbr 1000 ------- 2 1.0 5.0 2 7
r 1.841643 0 2 tcp 1040 ------- 1 0.0 4.0 4 9
+ 1.841643 2 3 tcp 1040 ------- 1 0.0 4.0 4 9
r 1.845803 0 2 tcp 1040 ------- 1 0.0 4.0 5 10
+ 1.845803 2 3 tcp 1040 ------- 1 0.0 4.0 5 10
- 1.865216 2 3 tcp 1040 ------- 1 0.0 4.0 4 9
+ 1.880667 3 6 cbr 1000 ------- 2 1.0 5.0 2 7
- 1.880667 3 6 cbr 1000 ------- 2 1.0 5.0 2 7
d 1.880671 4 6 cbr 1000 ------- 2 1.0 5.0 2 7
- 1.892949 2 3 tcp 1040 ------- 1 0.0 4.0 5 10
r 1.920671 6 5 cbr 1000 ------- 2 1.0 5.0 2 7
r 1.965216 2 3 tcp 1040 ------- 1 0.0 4.0 3 8
h 1.965216 3 6 tcp 1040 ------- 1 0.0 4.0 3 8
r 1.992949 2 3 tcp 1040 ------- 1 0.0 4.0 4 9
h 1.992949 3 6 tcp 1040 ------- 1 0.0 4.0 4 9
+ 2.005216 3 6 tcp 1040 ------- 1 0.0 4.0 3 8
- 2.005216 3 6 tcp 1040 ------- 1 0.0 4.0 3 8
d 2.00522 5 6 tcp 1040 ------- 1 0.0 4.0 3 8
r 2.020683 2 3 tcp 1040 ------- 1 0.0 4.0 5 10
h 2.020683 3 6 tcp 1040 ------- 1 0.0 4.0 5 10
+ 2.032949 3 6 tcp 1040 ------- 1 0.0 4.0 4 9
- 2.032949 3 6 tcp 1040 ------- 1 0.0 4.0 4 9
d 2.032953 5 6 tcp 1040 ------- 1 0.0 4.0 4 9
r 2.04522 6 4 tcp 1040 ------- 1 0.0 4.0 3 8
+ 2.060683 3 6 tcp 1040 ------- 1 0.0 4.0 5 10
- 2.060683 3 6 tcp 1040 ------- 1 0.0 4.0 5 10
d 2.060687 5 6 tcp 1040 ------- 1 0.0 4.0 5 10
r 2.072953 6 4 tcp 1040 ------- 1 0.0 4.0 4 9
h 2.072953 4 6 ack 40 ------- 1 4.0 0.0 4 11
r 2.100687 6 4 tcp 1040 ------- 1 0.0 4.0 5 10
+ 2.112953 4 6 ack 40 ------- 1 4.0 0.0 4 11
- 2.112953 4 6 ack 40 ------- 1 4.0 0.0 4 11
d 2.112957 5 6 ack 40 ------- 1 4.0 0.0 4 11
r 2.152957 6 3 ack 40 ------- 1 4.0 0.0 4 11
+ 2.152957 3 2 ack 40 ------- 1 4.0 0.0 4 11
- 2.152957 3 2 ack 40 ------- 1 4.0 0.0 4 11
h 2.200687 4 6 ack 40 ------- 1 4.0 0.0 5 12
+ 2.240687 4 6 ack 40 ------- 1 4.0 0.0 5 12
- 2.240687 4 6 ack 40 ------- 1 4.0 0.0 5 12
d 2.240691 5 6 ack 40 ------- 1 4.0 0.0 5 12
r 2.254024 3 2 ack 40 ------- 1 4.0 0.0 4 11
+ 2.254024 2 0 ack 40 ------- 1 4.0 0.0 4 11
- 2.254024 2 0 ack 40 ------- 1 4.0 0.0 4 11
r 2.264184 2 0 ack 40 ------- 1 4.0 0.0 4 11
+ 2.264184 0 2 tcp 1040 ------- 1 0.0 4.0 6 13
- 2.264184 0 2 tcp 1040 ------- 1 0.0 4.0 6 13
+ 2.264184 0 2 tcp 1040 ------- 1 0.0 4.0 7 14
+ 2.264184 0 2 tcp 1040 ------- 1 0.0 4.0 8 15
- 2.268344 0 2 tcp 1040 ------- 1 0.0 4.0 7 14
- 2.272504 0 2 tcp 1040 ------- 1 0.0 4.0 8 15
r 2.278344 0 2 tcp 1040 ------- 1 0.0 4.0 6 13
+ 2.278344 2 3 tcp 1040 ------- 1 0.0 4.0 6 13
- 2.278344 2 3 tcp 1040 ------- 1 0.0 4.0 6 13
r 2.280691 6 3 ack 40 ------- 1 4.0 0.0 5 12
+ 2.280691 3 2 ack 40 ------- 1 4.0 0.0 5 12
- 2.280691 3 2 ack 40 ------- 1 4.0 0.0 5 12
r 2.282504 0 2 tcp 1040 ------- 1 0.0 4.0 7 14
+ 2.282504 2 3 tcp 1040 ------- 1 0.0 4.0 7 14
r 2.286664 0 2 tcp 1040 ------- 1 0.0 4.0 8 15
+ 2.286664 2 3 tcp 1040 ------- 1 0.0 4.0 8 15
- 2.306077 2 3 tcp 1040 ------- 1 0.0 4.0 7 14
- 2.333811 2 3 tcp 1040 ------- 1 0.0 4.0 8 15
r 2.381757 3 2 ack 40 ------- 1 4.0 0.0 5 12
+ 2.381757 2 0 ack 40 ------- 1 4.0 0.0 5 12
- 2.381757 2 0 ack 40 ------- 1 4.0 0.0 5 12
r 2.391917 2 0 ack 40 ------- 1 4.0 0.0 5 12
+ 2.391917 0 2 tcp 1040 ------- 1 0.0 4.0 9 16
- 2.391917 0 2 tcp 1040 ------- 1 0.0 4.0 9 16
+ 2.391917 0 2 tcp 1040 ------- 1 0.0 4.0 10 17
- 2.396077 0 2 tcp 1040 ------- 1 0.0 4.0 10 17
r 2.406077 2 3 tcp 1040 ------- 1 0.0 4.0 6 13
h 2.406077 3 6 tcp 1040 ------- 1 0.0 4.0 6 13
r 2.406077 0 2 tcp 1040 ------- 1 0.0 4.0 9 16
+ 2.406077 2 3 tcp 1040 ------- 1 0.0 4.0 9 16
- 2.406077 2 3 tcp 1040 ------- 1 0.0 4.0 9 16
r 2.410237 0 2 tcp 1040 ------- 1 0.0 4.0 10 17
+ 2.410237 2 3 tcp 1040 ------- 1 0.0 4.0 10 17
r 2.433811 2 3 tcp 1040 ------- 1 0.0 4.0 7 14
h 2.433811 3 6 tcp 1040 ------- 1 0.0 4.0 7 14
- 2.433811 2 3 tcp 1040 ------- 1 0.0 4.0 10 17
+ 2.446077 3 6 tcp 1040 ------- 1 0.0 4.0 6 13
- 2.446077 3 6 tcp 1040 ------- 1 0.0 4.0 6 13
d 2.446081 5 6 tcp 1040 ------- 1 0.0 4.0 6 13
r 2.461544 2 3 tcp 1040 ------- 1 0.0 4.0 8 15
h 2.461544 3 6 tcp 1040 ------- 1 0.0 4.0 8 15
+ 2.473811 3 6 tcp 1040 ------- 1 0.0 4.0 7 14
- 2.473811 3 6 tcp 1040 ------- 1 0.0 4.0 7 14
d 2.473815 5 6 tcp 1040 ------- 1 0.0 4.0 7 14
r 2.486081 6 4 tcp 1040 ------- 1 0.0 4.0 6 13
+ 2.5 1 2 cbr 1000 ------- 2 1.0 5.0 3 18
- 2.5 1 2 cbr 1000 ------- 2 1.0 5.0 3 18
+ 2.501544 3 6 tcp 1040 ------- 1 0.0 4.0 8 15
- 2.501544 3 6 tcp 1040 ------- 1 0.0 4.0 8 15
d 2.501548 5 6 tcp 1040 ------- 1 0.0 4.0 8 15
r 2.513815 6 4 tcp 1040 ------- 1 0.0 4.0 7 14
h 2.513815 4 6 ack 40 ------- 1 4.0 0.0 7 19
r 2.514 1 2 cbr 1000 ------- 2 1.0 5.0 3 18
+ 2.514 2 3 cbr 1000 ------- 2 1.0 5.0 3 18
- 2.514 2 3 cbr 1000 ------- 2 1.0 5.0 3 18
r 2.533811 2 3 tcp 1040 ------- 1 0.0 4.0 9 16
h 2.533811 3 6 tcp 1040 ------- 1 0.0 4.0 9 16
r 2.541548 6 4 tcp 1040 ------- 1 0.0 4.0 8 15
+ 2.553815 4 6 ack 40 ------- 1 4.0 0.0 7 19
- 2.553815 4 6 ack 40 ------- 1 4.0 0.0 7 19
d 2.553819 5 6 ack 40 ------- 1 4.0 0.0 7 19
r 2.561544 2 3 tcp 1040 ------- 1 0.0 4.0 10 17
h 2.561544 3 6 tcp 1040 ------- 1 0.0 4.0 10 17
+ 2.573811 3 6 tcp 1040 ------- 1 0.0 4.0 9 16
- 2.573811 3 6 tcp 1040 ------- 1 0.0 4.0 9 16
d 2.573815 5 6 tcp 1040 ------- 1 0.0 4.0 9 16
r 2.593819 6 3 ack 40 ------- 1 4.0 0.0 7 19
+ 2.593819 3 2 ack 40 ------- 1 4.0 0.0 7 19
- 2.593819 3 2 ack 40 ------- 1 4.0 0.0 7 19
+ 2.601544 3 6 tcp 1040 ------- 1 0.0 4.0 10 17
- 2.601544 3 6 tcp 1040 ------- 1 0.0 4.0 10 17
d 2.601548 5 6 tcp 1040 ------- 1 0.0 4.0 10 17
r 2.613815 6 4 tcp 1040 ------- 1 0.0 4.0 9 16
h 2.613815 4 6 ack 40 ------- 1 4.0 0.0 9 20
r 2.640667 2 3 cbr 1000 ------- 2 1.0 5.0 3 18
h 2.640667 3 6 cbr 1000 ------- 2 1.0 5.0 3 18
r 2.641548 6 4 tcp 1040 ------- 1 0.0 4.0 10 17
+ 2.653815 4 6 ack 40 ------- 1 4.0 0.0 9 20
- 2.653815 4 6 ack 40 ------- 1 4.0 0.0 9 20
d 2.653819 5 6 ack 40 ------- 1 4.0 0.0 9 20
+ 2.680667 3 6 cbr 1000 ------- 2 1.0 5.0 3 18
- 2.680667 3 6 cbr 1000 ------- 2 1.0 5.0 3 18
d 2.680671 4 6 cbr 1000 ------- 2 1.0 5.0 3 18
r 2.693819 6 3 ack 40 ------- 1 4.0 0.0 9 20
+ 2.693819 3 2 ack 40 ------- 1 4.0 0.0 9 20
- 2.693819 3 2 ack 40 ------- 1 4.0 0.0 9 20
r 2.694885 3 2 ack 40 ------- 1 4.0 0.0 7 19
+ 2.694885 2 0 ack 40 ------- 1 4.0 0.0 7 19
- 2.694885 2 0 ack 40 ------- 1 4.0 0.0 7 19
r 2.705045 2 0 ack 40 ------- 1 4.0 0.0 7 19
+ 2.705045 0 2 tcp 1040 ------- 1 0.0 4.0 11 21
- 2.705045 0 2 tcp 1040 ------- 1 0.0 4.0 11 21
+ 2.705045 0 2 tcp 1040 ------- 1 0.0 4.0 12 22
+ 2.705045 0 2 tcp 1040 ------- 1 0.0 4.0 13 23
- 2.709205 0 2 tcp 1040 ------- 1 0.0 4.0 12 22
- 2.713365 0 2 tcp 1040 ------- 1 0.0 4.0 13 23
r 2.719205 0 2 tcp 1040 ------- 1 0.0 4.0 11 21
+ 2.719205 2 3 tcp 1040 ------- 1 0.0 4.0 11 21
- 2.719205 2 3 tcp 1040 ------- 1 0.0 4.0 11 21
r 2.720671 6 5 cbr 1000 ------- 2 1.0 5.0 3 18
r 2.723365 0 2 tcp 1040 ------- 1 0.0 4.0 12 22
+ 2.723365 2 3 tcp 1040 ------- 1 0.0 4.0 12 22
r 2.727525 0 2 tcp 1040 ------- 1 0.0 4.0 13 23
+ 2.727525 2 3 tcp 1040 ------- 1 0.0 4.0 13 23
h 2.741548 4 6 ack 40 ------- 1 4.0 0.0 10 24
- 2.746939 2 3 tcp 1040 ------- 1 0.0 4.0 12 22
- 2.774672 2 3 tcp 1040 ------- 1 0.0 4.0 13 23
+ 2.781548 4 6 ack 40 ------- 1 4.0 0.0 10 24
- 2.781548 4 6 ack 40 ------- 1 4.0 0.0 10 24
d 2.781552 5 6 ack 40 ------- 1 4.0 0.0 10 24
r 2.794885 3 2 ack 40 ------- 1 4.0 0.0 9 20
+ 2.794885 2 0 ack 40 ------- 1 4.0 0.0 9 20
- 2.794885 2 0 ack 40 ------- 1 4.0 0.0 9 20
r 2.805045 2 0 ack 40 ------- 1 4.0 0.0 9 20
+ 2.805045 0 2 tcp 1040 ------- 1 0.0 4.0 14 25
- 2.805045 0 2 tcp 1040 ------- 1 0.0 4.0 14 25
+ 2.805045 0 2 tcp 1040 ------- 1 0.0 4.0 15 26
+ 2.805045 0 2 tcp 1040 ------- 1 0.0 4.0 16 27
- 2.809205 0 2 tcp 1040 ------- 1 0.0 4.0 15 26
- 2.813365 0 2 tcp 1040 ------- 1 0.0 4.0 16 27
r 2.819205 0 2 tcp 1040 ------- 1 0.0 4.0 14 25
+ 2.819205 2 3 tcp 1040 ------- 1 0.0 4.0 14 25
- 2.819205 2 3 tcp 1040 ------- 1 0.0 4.0 14 25
r 2.821552 6 3 ack 40 ------- 1 4.0 0.0 10 24
+ 2.821552 3 2 ack 40 ------- 1 4.0 0.0 10 24
- 2.821552 3 2 ack 40 ------- 1 4.0 0.0 10 24
r 2.823365 0 2 tcp 1040 ------- 1 0.0 4.0 15 26
+ 2.823365 2 3 tcp 1040 ------- 1 0.0 4.0 15 26
r 2.827525 0 2 tcp 1040 ------- 1 0.0 4.0 16 27
+ 2.827525 2 3 tcp 1040 ------- 1 0.0 4.0 16 27
r 2.846939 2 3 tcp 1040 ------- 1 0.0 4.0 11 21
h 2.846939 3 6 tcp 1040 ------- 1 0.0 4.0 11 21
- 2.846939 2 3 tcp 1040 ------- 1 0.0 4.0 15 26
r 2.874672 2 3 tcp 1040 ------- 1 0.0 4.0 12 22
h 2.874672 3 6 tcp 1040 ------- 1 0.0 4.0 12 22
- 2.874672 2 3 tcp 1040 ------- 1 0.0 4.0 16 27
+ 2.886939 3 6 tcp 1040 ------- 1 0.0 4.0 11 21
- 2.886939 3 6 tcp 1040 ------- 1 0.0 4.0 11 21
d 2.886943 5 6 tcp 1040 ------- 1 0.0 4.0 11 21
r 2.902405 2 3 tcp 1040 ------- 1 0.0 4.0 13 23
h 2.902405 3 6 tcp 1040 ------- 1 0.0 4.0 13 23
+ 2.914672 3 6 tcp 1040 ------- 1 0.0 4.0 12 22
- 2.914672 3 6 tcp 1040 ------- 1 0.0 4.0 12 22
d 2.914676 5 6 tcp 1040 ------- 1 0.0 4.0 12 22
r 2.922619 3 2 ack 40 ------- 1 4.0 0.0 10 24
+ 2.922619 2 0 ack 40 ------- 1 4.0 0.0 10 24
- 2.922619 2 0 ack 40 ------- 1 4.0 0.0 10 24
r 2.926943 6 4 tcp 1040 ------- 1 0.0 4.0 11 21
r 2.932779 2 0 ack 40 ------- 1 4.0 0.0 10 24
+ 2.932779 0 2 tcp 1040 ------- 1 0.0 4.0 17 28
- 2.932779 0 2 tcp 1040 ------- 1 0.0 4.0 17 28
+ 2.932779 0 2 tcp 1040 ------- 1 0.0 4.0 18 29
- 2.936939 0 2 tcp 1040 ------- 1 0.0 4.0 18 29
+ 2.942405 3 6 tcp 1040 ------- 1 0.0 4.0 13 23
- 2.942405 3 6 tcp 1040 ------- 1 0.0 4.0 13 23
d 2.942409 5 6 tcp 1040 ------- 1 0.0 4.0 13 23
r 2.946939 2 3 tcp 1040 ------- 1 0.0 4.0 14 25
h 2.946939 3 6 tcp 1040 ------- 1 0.0 4.0 14 25
r 2.946939 0 2 tcp 1040 ------- 1 0.0 4.0 17 28
+ 2.946939 2 3 tcp 1040 ------- 1 0.0 4.0 17 28
- 2.946939 2 3 tcp 1040 ------- 1 0.0 4.0 17 28
r 2.951099 0 2 tcp 1040 ------- 1 0.0 4.0 18 29
+ 2.951099 2 3 tcp 1040 ------- 1 0.0 4.0 18 29
r 2.954676 6 4 tcp 1040 ------- 1 0.0 4.0 12 22
h 2.954676 4 6 ack 40 ------- 1 4.0 0.0 12 30
r 2.974672 2 3 tcp 1040 ------- 1 0.0 4.0 15 26
h 2.974672 3 6 tcp 1040 ------- 1 0.0 4.0 15 26
- 2.974672 2 3 tcp 1040 ------- 1 0.0 4.0 18 29
r 2.982409 6 4 tcp 1040 ------- 1 0.0 4.0 13 23
+ 2.986939 3 6 tcp 1040 ------- 1 0.0 4.0 14 25
- 2.986939 3 6 tcp 1040 ------- 1 0.0 4.0 14 25
d 2.986943 5 6 tcp 1040 ------- 1 0.0 4.0 14 25
+ 2.994676 4 6 ack 40 ------- 1 4.0 0.0 12 30
- 2.994676 4 6 ack 40 ------- 1 4.0 0.0 12 30
d 2.99468 5 6 ack 40 ------- 1 4.0 0.0 12 30
r 3.002405 2 3 tcp 1040 ------- 1 0.0 4.0 16 27
h 3.002405 3 6 tcp 1040 ------- 1 0.0 4.0 16 27
+ 3.014672 3 6 tcp 1040 ------- 1 0.0 4.0 15 26
- 3.014672 3 6 tcp 1040 ------- 1 0.0 4.0 15 26
d 3.014676 5 6 tcp 1040 ------- 1 0.0 4.0 15 26
r 3.026943 6 4 tcp 1040 ------- 1 0.0 4.0 14 25
h 3.026943 4 6 ack 40 ------- 1 4.0 0.0 14 31
r 3.03468 6 3 ack 40 ------- 1 4.0 0.0 12 30
+ 3.03468 3 2 ack 40 ------- 1 4.0 0.0 12 30
- 3.03468 3 2 ack 40 ------- 1 4.0 0.0 12 30
+ 3.042405 3 6 tcp 1040 ------- 1 0.0 4.0 16 27
- 3.042405 3 6 tcp 1040 ------- 1 0.0 4.0 16 27
d 3.042409 5 6 tcp 1040 ------- 1 0.0 4.0 16 27
r 3.054676 6 4 tcp 1040 ------- 1 0.0 4.0 15 26
+ 3.066943 4 6 ack 40 ------- 1 4.0 0.0 14 31
- 3.066943 4 6 ack 40 ------- 1 4.0 0.0 14 31
d 3.066947 5 6 ack 40 ------- 1 4.0 0.0 14 31
r 3.074672 2 3 tcp 1040 ------- 1 0.0 4.0 17 28
h 3.074672 3 6 tcp 1040 ------- 1 0.0 4.0 17 28
r 3.082409 6 4 tcp 1040 ------- 1 0.0 4.0 16 27
h 3.082409 4 6 ack 40 ------- 1 4.0 0.0 16 32
r 3.102405 2 3 tcp 1040 ------- 1 0.0 4.0 18 29
h 3.102405 3 6 tcp 1040 ------- 1 0.0 4.0 18 29
r 3.106947 6 3 ack 40 ------- 1 4.0 0.0 14 31
+ 3.106947 3 2 ack 40 ------- 1 4.0 0.0 14 31
- 3.106947 3 2 ack 40 ------- 1 4.0 0.0 14 31
+ 3.114672 3 6 tcp 1040 ------- 1 0.0 4.0 17 28
- 3.114672 3 6 tcp 1040 ------- 1 0.0 4.0 17 28
d 3.114676 5 6 tcp 1040 ------- 1 0.0 4.0 17 28
+ 3.122409 4 6 ack 40 ------- 1 4.0 0.0 16 32
- 3.122409 4 6 ack 40 ------- 1 4.0 0.0 16 32
d 3.122413 5 6 ack 40 ------- 1 4.0 0.0 16 32
r 3.135747 3 2 ack 40 ------- 1 4.0 0.0 12 30
+ 3.135747 2 0 ack 40 ------- 1 4.0 0.0 12 30
- 3.135747 2 0 ack 40 ------- 1 4.0 0.0 12 30
+ 3.142405 3 6 tcp 1040 ------- 1 0.0 4.0 18 29
- 3.142405 3 6 tcp 1040 ------- 1 0.0 4.0 18 29
d 3.142409 5 6 tcp 1040 ------- 1 0.0 4.0 18 29
r 3.145907 2 0 ack 40 ------- 1 4.0 0.0 12 30
+ 3.145907 0 2 tcp 1040 ------- 1 0.0 4.0 19 33
- 3.145907 0 2 tcp 1040 ------- 1 0.0 4.0 19 33
+ 3.145907 0 2 tcp 1040 ------- 1 0.0 4.0 20 34
+ 3.145907 0 2 tcp 1040 ------- 1 0.0 4.0 21 35
- 3.150067 0 2 tcp 1040 ------- 1 0.0 4.0 20 34
- 3.154227 0 2 tcp 1040 ------- 1 0.0 4.0 21 35
r 3.154676 6 4 tcp 1040 ------- 1 0.0 4.0 17 28
r 3.160067 0 2 tcp 1040 ------- 1 0.0 4.0 19 33
+ 3.160067 2 3 tcp 1040 ------- 1 0.0 4.0 19 33
- 3.160067 2 3 tcp 1040 ------- 1 0.0 4.0 19 33
r 3.162413 6 3 ack 40 ------- 1 4.0 0.0 16 32
+ 3.162413 3 2 ack 40 ------- 1 4.0 0.0 16 32
- 3.162413 3 2 ack 40 ------- 1 4.0 0.0 16 32
r 3.164227 0 2 tcp 1040 ------- 1 0.0 4.0 20 34
+ 3.164227 2 3 tcp 1040 ------- 1 0.0 4.0 20 34
r 3.168387 0 2 tcp 1040 ------- 1 0.0 4.0 21 35
+ 3.168387 2 3 tcp 1040 ------- 1 0.0 4.0 21 35
r 3.182409 6 4 tcp 1040 ------- 1 0.0 4.0 18 29
h 3.182409 4 6 ack 40 ------- 1 4.0 0.0 18 36
- 3.1878 2 3 tcp 1040 ------- 1 0.0 4.0 20 34
r 3.208013 3 2 ack 40 ------- 1 4.0 0.0 14 31
+ 3.208013 2 0 ack 40 ------- 1 4.0 0.0 14 31
- 3.208013 2 0 ack 40 ------- 1 4.0 0.0 14 31
- 3.215533 2 3 tcp 1040 ------- 1 0.0 4.0 21 35
r 3.218173 2 0 ack 40 ------- 1 4.0 0.0 14 31
+ 3.218173 0 2 tcp 1040 ------- 1 0.0 4.0 22 37
- 3.218173 0 2 tcp 1040 ------- 1 0.0 4.0 22 37
+ 3.218173 0 2 tcp 1040 ------- 1 0.0 4.0 23 38
+ 3.218173 0 2 tcp 1040 ------- 1 0.0 4.0 24 39
- 3.222333 0 2 tcp 1040 ------- 1 0.0 4.0 23 38
+ 3.222409 4 6 ack 40 ------- 1 4.0 0.0 18 36
- 3.222409 4 6 ack 40 ------- 1 4.0 0.0 18 36
d 3.222413 5 6 ack 40 ------- 1 4.0 0.0 18 36
- 3.226493 0 2 tcp 1040 ------- 1 0.0 4.0 24 39
r 3.232333 0 2 tcp 1040 ------- 1 0.0 4.0 22 37
+ 3.232333 2 3 tcp 1040 ------- 1 0.0 4.0 22 37
r 3.236493 0 2 tcp 1040 ------- 1 0.0 4.0 23 38
+ 3.236493 2 3 tcp 1040 ------- 1 0.0 4.0 23 38
r 3.240653 0 2 tcp 1040 ------- 1 0.0 4.0 24 39
+ 3.240653 2 3 tcp 1040 ------- 1 0.0 4.0 24 39
- 3.243267 2 3 tcp 1040 ------- 1 0.0 4.0 22 37
r 3.262413 6 3 ack 40 ------- 1 4.0 0.0 18 36
+ 3.262413 3 2 ack 40 ------- 1 4.0 0.0 18 36
- 3.262413 3 2 ack 40 ------- 1 4.0 0.0 18 36
r 3.26348 3 2 ack 40 ------- 1 4.0 0.0 16 32
+ 3.26348 2 0 ack 40 ------- 1 4.0 0.0 16 32
- 3.26348 2 0 ack 40 ------- 1 4.0 0.0 16 32
- 3.271 2 3 tcp 1040 ------- 1 0.0 4.0 23 38
r 3.27364 2 0 ack 40 ------- 1 4.0 0.0 16 32
+ 3.27364 0 2 tcp 1040 ------- 1 0.0 4.0 25 40
- 3.27364 0 2 tcp 1040 ------- 1 0.0 4.0 25 40
+ 3.27364 0 2 tcp 1040 ------- 1 0.0 4.0 26 41
+ 3.27364 0 2 tcp 1040 ------- 1 0.0 4.0 27 42
- 3.2778 0 2 tcp 1040 ------- 1 0.0 4.0 26 41
- 3.28196 0 2 tcp 1040 ------- 1 0.0 4.0 27 42
r 3.2878 2 3 tcp 1040 ------- 1 0.0 4.0 19 33
h 3.2878 3 6 tcp 1040 ------- 1 0.0 4.0 19 33
r 3.2878 0 2 tcp 1040 ------- 1 0.0 4.0 25 40
+ 3.2878 2 3 tcp 1040 ------- 1 0.0 4.0 25 40
r 3.29196 0 2 tcp 1040 ------- 1 0.0 4.0 26 41
+ 3.29196 2 3 tcp 1040 ------- 1 0.0 4.0 26 41
r 3.29612 0 2 tcp 1040 ------- 1 0.0 4.0 27 42
+ 3.29612 2 3 tcp 1040 ------- 1 0.0 4.0 27 42
- 3.298733 2 3 tcp 1040 ------- 1 0.0 4.0 24 39
+ 3.3 1 2 cbr 1000 ------- 2 1.0 5.0 4 43
- 3.3 1 2 cbr 1000 ------- 2 1.0 5.0 4 43
r 3.314 1 2 cbr 1000 ------- 2 1.0 5.0 4 43
+ 3.314 2 3 cbr 1000 ------- 2 1.0 5.0 4 43
r 3.315533 2 3 tcp 1040 ------- 1 0.0 4.0 20 34
h 3.315533 3 6 tcp 1040 ------- 1 0.0 4.0 20 34
- 3.326467 2 3 tcp 1040 ------- 1 0.0 4.0 25 40
+ 3.3278 3 6 tcp 1040 ------- 1 0.0 4.0 19 33
- 3.3278 3 6 tcp 1040 ------- 1 0.0 4.0 19 33
d 3.327804 5 6 tcp 1040 ------- 1 0.0 4.0 19 33
r 3.343267 2 3 tcp 1040 ------- 1 0.0 4.0 21 35
h 3.343267 3 6 tcp 1040 ------- 1 0.0 4.0 21 35
- 3.3542 2 3 tcp 1040 ------- 1 0.0 4.0 26 41
+ 3.355533 3 6 tcp 1040 ------- 1 0.0 4.0 20 34
- 3.355533 3 6 tcp 1040 ------- 1 0.0 4.0 20 34
d 3.355537 5 6 tcp 1040 ------- 1 0.0 4.0 20 34
r 3.36348 3 2 ack 40 ------- 1 4.0 0.0 18 36
+ 3.36348 2 0 ack 40 ------- 1 4.0 0.0 18 36
- 3.36348 2 0 ack 40 ------- 1 4.0 0.0 18 36
r 3.367804 6 4 tcp 1040 ------- 1 0.0 4.0 19 33
r 3.371 2 3 tcp 1040 ------- 1 0.0 4.0 22 37
h 3.371 3 6 tcp 1040 ------- 1 0.0 4.0 22 37
r 3.37364 2 0 ack 40 ------- 1 4.0 0.0 18 36
+ 3.37364 0 2 tcp 1040 ------- 1 0.0 4.0 28 44
- 3.37364 0 2 tcp 1040 ------- 1 0.0 4.0 28 44
+ 3.37364 0 2 tcp 1040 ------- 1 0.0 4.0 29 45
+ 3.37364 0 2 tcp 1040 ------- 1 0.0 4.0 30 46
- 3.3778 0 2 tcp 1040 ------- 1 0.0 4.0 29 45
- 3.381933 2 3 tcp 1040 ------- 1 0.0 4.0 27 42
- 3.38196 0 2 tcp 1040 ------- 1 0.0 4.0 30 46
+ 3.383267 3 6 tcp 1040 ------- 1 0.0 4.0 21 35
- 3.383267 3 6 tcp 1040 ------- 1 0.0 4.0 21 35
d 3.383271 5 6 tcp 1040 ------- 1 0.0 4.0 21 35
r 3.3878 0 2 tcp 1040 ------- 1 0.0 4.0 28 44
+ 3.3878 2 3 tcp 1040 ------- 1 0.0 4.0 28 44
r 3.39196 0 2 tcp 1040 ------- 1 0.0 4.0 29 45
+ 3.39196 2 3 tcp 1040 ------- 1 0.0 4.0 29 45
r 3.395537 6 4 tcp 1040 ------- 1 0.0 4.0 20 34
h 3.395537 4 6 ack 40 ------- 1 4.0 0.0 20 47
r 3.39612 0 2 tcp 1040 ------- 1 0.0 4.0 30 46
+ 3.39612 2 3 tcp 1040 ------- 1 0.0 4.0 30 46
r 3.398733 2 3 tcp 1040 ------- 1 0.0 4.0 23 38
h 3.398733 3 6 tcp 1040 ------- 1 0.0 4.0 23 38
- 3.409667 2 3 cbr 1000 ------- 2 1.0 5.0 4 43
+ 3.411 3 6 tcp 1040 ------- 1 0.0 4.0 22 37
- 3.411 3 6 tcp 1040 ------- 1 0.0 4.0 22 37
d 3.411004 5 6 tcp 1040 ------- 1 0.0 4.0 22 37
r 3.423271 6 4 tcp 1040 ------- 1 0.0 4.0 21 35
r 3.426467 2 3 tcp 1040 ------- 1 0.0 4.0 24 39
h 3.426467 3 6 tcp 1040 ------- 1 0.0 4.0 24 39
+ 3.435537 4 6 ack 40 ------- 1 4.0 0.0 20 47
- 3.435537 4 6 ack 40 ------- 1 4.0 0.0 20 47
d 3.435541 5 6 ack 40 ------- 1 4.0 0.0 20 47
- 3.436333 2 3 tcp 1040 ------- 1 0.0 4.0 28 44
+ 3.438733 3 6 tcp 1040 ------- 1 0.0 4.0 23 38
- 3.438733 3 6 tcp 1040 ------- 1 0.0 4.0 23 38
d 3.438737 5 6 tcp 1040 ------- 1 0.0 4.0 23 38
r 3.451004 6 4 tcp 1040 ------- 1 0.0 4.0 22 37
h 3.451004 4 6 ack 40 ------- 1 4.0 0.0 22 48
r 3.4542 2 3 tcp 1040 ------- 1 0.0 4.0 25 40
h 3.4542 3 6 tcp 1040 ------- 1 0.0 4.0 25 40
- 3.464067 2 3 tcp 1040 ------- 1 0.0 4.0 29 45
+ 3.466467 3 6 tcp 1040 ------- 1 0.0 4.0 24 39
- 3.466467 3 6 tcp 1040 ------- 1 0.0 4.0 24 39
d 3.466471 5 6 tcp 1040 ------- 1 0.0 4.0 24 39
r 3.475541 6 3 ack 40 ------- 1 4.0 0.0 20 47
+ 3.475541 3 2 ack 40 ------- 1 4.0 0.0 20 47
- 3.475541 3 2 ack 40 ------- 1 4.0 0.0 20 47
r 3.478737 6 4 tcp 1040 ------- 1 0.0 4.0 23 38
r 3.481933 2 3 tcp 1040 ------- 1 0.0 4.0 26 41
h 3.481933 3 6 tcp 1040 ------- 1 0.0 4.0 26 41
+ 3.491004 4 6 ack 40 ------- 1 4.0 0.0 22 48
- 3.491004 4 6 ack 40 ------- 1 4.0 0.0 22 48
d 3.491008 5 6 ack 40 ------- 1 4.0 0.0 22 48
- 3.4918 2 3 tcp 1040 ------- 1 0.0 4.0 30 46
+ 3.4942 3 6 tcp 1040 ------- 1 0.0 4.0 25 40
- 3.4942 3 6 tcp 1040 ------- 1 0.0 4.0 25 40
d 3.494204 5 6 tcp 1040 ------- 1 0.0 4.0 25 40
r 3.506471 6 4 tcp 1040 ------- 1 0.0 4.0 24 39
h 3.506471 4 6 ack 40 ------- 1 4.0 0.0 24 49
r 3.509667 2 3 tcp 1040 ------- 1 0.0 4.0 27 42
h 3.509667 3 6 tcp 1040 ------- 1 0.0 4.0 27 42
+ 3.521933 3 6 tcp 1040 ------- 1 0.0 4.0 26 41
- 3.521933 3 6 tcp 1040 ------- 1 0.0 4.0 26 41
d 3.521937 5 6 tcp 1040 ------- 1 0.0 4.0 26 41
r 3.531008 6 3 ack 40 ------- 1 4.0 0.0 22 48
+ 3.531008 3 2 ack 40 ------- 1 4.0 0.0 22 48
- 3.531008 3 2 ack 40 ------- 1 4.0 0.0 22 48
r 3.534204 6 4 tcp 1040 ------- 1 0.0 4.0 25 40
r 3.536333 2 3 cbr 1000 ------- 2 1.0 5.0 4 43
h 3.536333 3 6 cbr 1000 ------- 2 1.0 5.0 4 43
+ 3.546471 4 6 ack 40 ------- 1 4.0 0.0 24 49
- 3.546471 4 6 ack 40 ------- 1 4.0 0.0 24 49
d 3.546475 5 6 ack 40 ------- 1 4.0 0.0 24 49
+ 3.549667 3 6 tcp 1040 ------- 1 0.0 4.0 27 42
- 3.549667 3 6 tcp 1040 ------- 1 0.0 4.0 27 42
d 3.549671 5 6 tcp 1040 ------- 1 0.0 4.0 27 42
r 3.561937 6 4 tcp 1040 ------- 1 0.0 4.0 26 41
h 3.561937 4 6 ack 40 ------- 1 4.0 0.0 26 50
r 3.564067 2 3 tcp 1040 ------- 1 0.0 4.0 28 44
h 3.564067 3 6 tcp 1040 ------- 1 0.0 4.0 28 44
+ 3.576333 3 6 cbr 1000 ------- 2 1.0 5.0 4 43
- 3.576333 3 6 cbr 1000 ------- 2 1.0 5.0 4 43
d 3.576337 4 6 cbr 1000 ------- 2 1.0 5.0 4 43
r 3.576608 3 2 ack 40 ------- 1 4.0 0.0 20 47
+ 3.576608 2 0 ack 40 ------- 1 4.0 0.0 20 47
- 3.576608 2 0 ack 40 ------- 1 4.0 0.0 20 47
r 3.586475 6 3 ack 40 ------- 1 4.0 0.0 24 49
+ 3.586475 3 2 ack 40 ------- 1 4.0 0.0 24 49
- 3.586475 3 2 ack 40 ------- 1 4.0 0.0 24 49
r 3.586768 2 0 ack 40 ------- 1 4.0 0.0 20 47
+ 3.586768 0 2 tcp 1040 ------- 1 0.0 4.0 31 51
- 3.586768 0 2 tcp 1040 ------- 1 0.0 4.0 31 51
+ 3.586768 0 2 tcp 1040 ------- 1 0.0 4.0 32 52
+ 3.586768 0 2 tcp 1040 ------- 1 0.0 4.0 33 53
r 3.589671 6 4 tcp 1040 ------- 1 0.0 4.0 27 42
- 3.590928 0 2 tcp 1040 ------- 1 0.0 4.0 32 52
r 3.5918 2 3 tcp 1040 ------- 1 0.0 4.0 29 45
h 3.5918 3 6 tcp 1040 ------- 1 0.0 4.0 29 45
- 3.595088 0 2 tcp 1040 ------- 1 0.0 4.0 33 53
r 3.600928 0 2 tcp 1040 ------- 1 0.0 4.0 31 51
+ 3.600928 2 3 tcp 1040 ------- 1 0.0 4.0 31 51
- 3.600928 2 3 tcp 1040 ------- 1 0.0 4.0 31 51
+ 3.601937 4 6 ack 40 ------- 1 4.0 0.0 26 50
- 3.601937 4 6 ack 40 ------- 1 4.0 0.0 26 50
d 3.601941 5 6 ack 40 ------- 1 4.0 0.0 26 50
+ 3.604067 3 6 tcp 1040 ------- 1 0.0 4.0 28 44
- 3.604067 3 6 tcp 1040 ------- 1 0.0 4.0 28 44
d 3.604071 5 6 tcp 1040 ------- 1 0.0 4.0 28 44
r 3.605088 0 2 tcp 1040 ------- 1 0.0 4.0 32 52
+ 3.605088 2 3 tcp 1040 ------- 1 0.0 4.0 32 52
r 3.609248 0 2 tcp 1040 ------- 1 0.0 4.0 33 53
+ 3.609248 2 3 tcp 1040 ------- 1 0.0 4.0 33 53
r 3.616337 6 5 cbr 1000 ------- 2 1.0 5.0 4 43
r 3.619533 2 3 tcp 1040 ------- 1 0.0 4.0 30 46
h 3.619533 3 6 tcp 1040 ------- 1 0.0 4.0 30 46
- 3.628661 2 3 tcp 1040 ------- 1 0.0 4.0 32 52
+ 3.6318 3 6 tcp 1040 ------- 1 0.0 4.0 29 45
- 3.6318 3 6 tcp 1040 ------- 1 0.0 4.0 29 45
d 3.631804 5 6 tcp 1040 ------- 1 0.0 4.0 29 45
r 3.632075 3 2 ack 40 ------- 1 4.0 0.0 22 48
+ 3.632075 2 0 ack 40 ------- 1 4.0 0.0 22 48
- 3.632075 2 0 ack 40 ------- 1 4.0 0.0 22 48
r 3.641941 6 3 ack 40 ------- 1 4.0 0.0 26 50
+ 3.641941 3 2 ack 40 ------- 1 4.0 0.0 26 50
- 3.641941 3 2 ack 40 ------- 1 4.0 0.0 26 50
r 3.642235 2 0 ack 40 ------- 1 4.0 0.0 22 48
+ 3.642235 0 2 tcp 1040 ------- 1 0.0 4.0 34 54
- 3.642235 0 2 tcp 1040 ------- 1 0.0 4.0 34 54
+ 3.642235 0 2 tcp 1040 ------- 1 0.0 4.0 35 55
+ 3.642235 0 2 tcp 1040 ------- 1 0.0 4.0 36 56
r 3.644071 6 4 tcp 1040 ------- 1 0.0 4.0 28 44
h 3.644071 4 6 ack 40 ------- 1 4.0 0.0 28 57
- 3.646395 0 2 tcp 1040 ------- 1 0.0 4.0 35 55
- 3.650555 0 2 tcp 1040 ------- 1 0.0 4.0 36 56
- 3.656395 2 3 tcp 1040 ------- 1 0.0 4.0 33 53
r 3.656395 0 2 tcp 1040 ------- 1 0.0 4.0 34 54
+ 3.656395 2 3 tcp 1040 ------- 1 0.0 4.0 34 54
+ 3.659533 3 6 tcp 1040 ------- 1 0.0 4.0 30 46
- 3.659533 3 6 tcp 1040 ------- 1 0.0 4.0 30 46
d 3.659537 5 6 tcp 1040 ------- 1 0.0 4.0 30 46
r 3.660555 0 2 tcp 1040 ------- 1 0.0 4.0 35 55
+ 3.660555 2 3 tcp 1040 ------- 1 0.0 4.0 35 55
r 3.664715 0 2 tcp 1040 ------- 1 0.0 4.0 36 56
+ 3.664715 2 3 tcp 1040 ------- 1 0.0 4.0 36 56
r 3.671804 6 4 tcp 1040 ------- 1 0.0 4.0 29 45
+ 3.684071 4 6 ack 40 ------- 1 4.0 0.0 28 57
- 3.684071 4 6 ack 40 ------- 1 4.0 0.0 28 57
d 3.684075 5 6 ack 40 ------- 1 4.0 0.0 28 57
- 3.684128 2 3 tcp 1040 ------- 1 0.0 4.0 34 54
r 3.687541 3 2 ack 40 ------- 1 4.0 0.0 24 49
+ 3.687541 2 0 ack 40 ------- 1 4.0 0.0 24 49
- 3.687541 2 0 ack 40 ------- 1 4.0 0.0 24 49
r 3.697701 2 0 ack 40 ------- 1 4.0 0.0 24 49
+ 3.697701 0 2 tcp 1040 ------- 1 0.0 4.0 37 58
- 3.697701 0 2 tcp 1040 ------- 1 0.0 4.0 37 58
+ 3.697701 0 2 tcp 1040 ------- 1 0.0 4.0 38 59
+ 3.697701 0 2 tcp 1040 ------- 1 0.0 4.0 39 60
r 3.699537 6 4 tcp 1040 ------- 1 0.0 4.0 30 46
h 3.699537 4 6 ack 40 ------- 1 4.0 0.0 30 61
- 3.701861 0 2 tcp 1040 ------- 1 0.0 4.0 38 59
- 3.706021 0 2 tcp 1040 ------- 1 0.0 4.0 39 60
- 3.711861 2 3 tcp 1040 ------- 1 0.0 4.0 35 55
r 3.711861 0 2 tcp 1040 ------- 1 0.0 4.0 37 58
+ 3.711861 2 3 tcp 1040 ------- 1 0.0 4.0 37 58
r 3.716021 0 2 tcp 1040 ------- 1 0.0 4.0 38 59
+ 3.716021 2 3 tcp 1040 ------- 1 0.0 4.0 38 59
r 3.720181 0 2 tcp 1040 ------- 1 0.0 4.0 39 60
+ 3.720181 2 3 tcp 1040 ------- 1 0.0 4.0 39 60
r 3.724075 6 3 ack 40 ------- 1 4.0 0.0 28 57
+ 3.724075 3 2 ack 40 ------- 1 4.0 0.0 28 57
- 3.724075 3 2 ack 40 ------- 1 4.0 0.0 28 57
r 3.728661 2 3 tcp 1040 ------- 1 0.0 4.0 31 51
h 3.728661 3 6 tcp 1040 ------- 1 0.0 4.0 31 51
+ 3.739537 4 6 ack 40 ------- 1 4.0 0.0 30 61
- 3.739537 4 6 ack 40 ------- 1 4.0 0.0 30 61
d 3.739541 5 6 ack 40 ------- 1 4.0 0.0 30 61
- 3.739595 2 3 tcp 1040 ------- 1 0.0 4.0 36 56
r 3.743008 3 2 ack 40 ------- 1 4.0 0.0 26 50
+ 3.743008 2 0 ack 40 ------- 1 4.0 0.0 26 50
- 3.743008 2 0 ack 40 ------- 1 4.0 0.0 26 50
r 3.753168 2 0 ack 40 ------- 1 4.0 0.0 26 50
+ 3.753168 0 2 tcp 1040 ------- 1 0.0 4.0 40 62
- 3.753168 0 2 tcp 1040 ------- 1 0.0 4.0 40 62
+ 3.753168 0 2 tcp 1040 ------- 1 0.0 4.0 41 63
+ 3.753168 0 2 tcp 1040 ------- 1 0.0 4.0 42 64
r 3.756395 2 3 tcp 1040 ------- 1 0.0 4.0 32 52
h 3.756395 3 6 tcp 1040 ------- 1 0.0 4.0 32 52
- 3.757328 0 2 tcp 1040 ------- 1 0.0 4.0 41 63
- 3.761488 0 2 tcp 1040 ------- 1 0.0 4.0 42 64
- 3.767328 2 3 tcp 1040 ------- 1 0.0 4.0 37 58
r 3.767328 0 2 tcp 1040 ------- 1 0.0 4.0 40 62
+ 3.767328 2 3 tcp 1040 ------- 1 0.0 4.0 40 62
+ 3.768661 3 6 tcp 1040 ------- 1 0.0 4.0 31 51
- 3.768661 3 6 tcp 1040 ------- 1 0.0 4.0 31 51
d 3.768665 5 6 tcp 1040 ------- 1 0.0 4.0 31 51
r 3.771488 0 2 tcp 1040 ------- 1 0.0 4.0 41 63
+ 3.771488 2 3 tcp 1040 ------- 1 0.0 4.0 41 63
r 3.775648 0 2 tcp 1040 ------- 1 0.0 4.0 42 64
+ 3.775648 2 3 tcp 1040 ------- 1 0.0 4.0 42 64
r 3.779541 6 3 ack 40 ------- 1 4.0 0.0 30 61
+ 3.779541 3 2 ack 40 ------- 1 4.0 0.0 30 61
- 3.779541 3 2 ack 40 ------- 1 4.0 0.0 30 61
r 3.784128 2 3 tcp 1040 ------- 1 0.0 4.0 33 53
h 3.784128 3 6 tcp 1040 ------- 1 0.0 4.0 33 53
- 3.795061 2 3 tcp 1040 ------- 1 0.0 4.0 38 59
+ 3.796395 3 6 tcp 1040 ------- 1 0.0 4.0 32 52
- 3.796395 3 6 tcp 1040 ------- 1 0.0 4.0 32 52
d 3.796399 5 6 tcp 1040 ------- 1 0.0 4.0 32 52
r 3.808665 6 4 tcp 1040 ------- 1 0.0 4.0 31 51