V -t * -v 1.0a5 -a 0
A -t * -n 1 -p 0 -o 0x7fffffff -c 30 -a 1
A -t * -h 1 -m 1073741823 -s 0
n -t * -a 4 -s 4 -S UP -v circle -c black -i black
n -t * -a 0 -s 0 -S UP -v circle -c black -i black
n -t * -a 1 -s 1 -S UP -v circle -c black -i black
n -t * -a 2 -s 2 -S UP -v circle -c black -i black
n -t * -a 3 -s 3 -S UP -v circle -c black -i black
l -t * -s 0 -d 1 -S UP -r 300000 -D 0.01 -c black -o right
l -t * -s 1 -d 2 -S UP -r 300000 -D 0.01 -c black -o right
l -t * -s 3 -d 1 -S UP -r 500000 -D 0.01 -c black -o down
l -t * -s 4 -d 1 -S UP -r 300000 -D 0.01 -c black -o up
+ -t 0.05 -s 0 -d 1 -p cbr -e 210 -c 0 -i 0 -a 0 -x {0.1 1073741824.0 0 ------- null}
- -t 0.05 -s 0 -d 1 -p cbr -e 210 -c 0 -i 0 -a 0 -x {0.1 1073741824.0 0 ------- null}
h -t 0.05 -s 0 -d 1 -p cbr -e 210 -c 0 -i 0 -a 0 -x {0.1 1073741824.0 -1 ------- null}
+ -t 0.05 -s 2 -d 1 -p cbr -e 210 -c 0 -i 1 -a 0 -x {2.1 1073741825.1 0 ------- null}
- -t 0.05 -s 2 -d 1 -p cbr -e 210 -c 0 -i 1 -a 0 -x {2.1 1073741825.1 0 ------- null}
h -t 0.05 -s 2 -d 1 -p cbr -e 210 -c 0 -i 1 -a 0 -x {2.1 1073741825.1 -1 ------- null}
+ -t 0.05375 -s 0 -d 1 -p cbr -e 210 -c 0 -i 2 -a 0 -x {0.1 1073741824.0 1 ------- null}
+ -t 0.05375 -s 2 -d 1 -p cbr -e 210 -c 0 -i 3 -a 0 -x {2.1 1073741825.1 1 ------- null}
- -t 0.0556 -s 0 -d 1 -p cbr -e 210 -c 0 -i 2 -a 0 -x {0.1 1073741824.0 1 ------- null}
h -t 0.0556 -s 0 -d 1 -p cbr -e 210 -c 0 -i 2 -a 0 -x {0.1 1073741824.0 -1 ------- null}
- -t 0.0556 -s 2 -d 1 -p cbr -e 210 -c 0 -i 3 -a 0 -x {2.1 1073741825.1 1 ------- null}
h -t 0.0556 -s 2 -d 1 -p cbr -e 210 -c 0 -i 3 -a 0 -x {2.1 1073741825.1 -1 ------- null}
+ -t 0.0575 -s 0 -d 1 -p cbr -e 210 -c 0 -i 4 -a 0 -x {0.1 1073741824.0 2 ------- null}
+ -t 0.0575 -s 2 -d 1 -p cbr -e 210 -c 0 -i 5 -a 0 -x {2.1 1073741825.1 2 ------- null}
- -t 0.0612 -s 0 -d 1 -p cbr -e 210 -c 0 -i 4 -a 0 -x {0.1 1073741824.0 2 ------- null}
h -t 0.0612 -s 0 -d 1 -p cbr -e 210 -c 0 -i 4 -a 0 -x {0.1 1073741824.0 -1 ------- null}
- -t 0.0612 -s 2 -d 1 -p cbr -e 210 -c 0 -i 5 -a 0 -x {2.1 1073741825.1 2 ------- null}
h -t 0.0612 -s 2 -d 1 -p cbr -e 210 -c 0 -i 5 -a 0 -x {2.1 1073741825.1 -1 ------- null}
+ -t 0.06125 -s 0 -d 1 -p cbr -e 210 -c 0 -i 6 -a 0 -x {0.1 1073741824.0 3 ------- null}
+ -t 0.06125 -s 2 -d 1 -p cbr -e 210 -c 0 -i 7 -a 0 -x {2.1 1073741825.1 3 ------- null}
+ -t 0.065 -s 0 -d 1 -p cbr -e 210 -c 0 -i 8 -a 0 -x {0.1 1073741824.0 4 ------- null}
+ -t 0.065 -s 2 -d 1 -p cbr -e 210 -c 0 -i 9 -a 0 -x {2.1 1073741825.1 4 ------- null}
r -t 0.0656 -s 0 -d 1 -p cbr -e 210 -c 0 -i 0 -a 0 -x {0.1 1073741824.0 0 ------- null}
+ -t 0.0656 -s 1 -d 4 -p cbr -e 210 -c 0 -i 0 -a 0 -x {0.1 1073741824.0 0 ------- null}
- -t 0.0656 -s 1 -d 4 -p cbr -e 210 -c 0 -i 0 -a 0 -x {0.1 1073741824.0 0 ------- null}
h -t 0.0656 -s 1 -d 4 -p cbr -e 210 -c 0 -i 0 -a 0 -x {0.1 1073741824.0 -1 ------- null}
+ -t 0.0656 -s 1 -d 2 -p cbr -e 210 -c 0 -i 0 -a 0 -x {0.1 1073741824.0 0 ------- null}
- -t 0.0656 -s 1 -d 2 -p cbr -e 210 -c 0 -i 0 -a 0 -x {0.1 1073741824.0 0 ------- null}
h -t 0.0656 -s 1 -d 2 -p cbr -e 210 -c 0 -i 0 -a 0 -x {0.1 1073741824.0 -1 ------- null}
+ -t 0.0656 -s 1 -d 3 -p cbr -e 210 -c 0 -i 0 -a 0 -x {0.1 1073741824.0 0 ------- null}
- -t 0.0656 -s 1 -d 3 -p cbr -e 210 -c 0 -i 0 -a 0 -x {0.1 1073741824.0 0 ------- null}
h -t 0.0656 -s 1 -d 3 -p cbr -e 210 -c 0 -i 0 -a 0 -x {0.1 1073741824.0 -1 ------- null}
r -t 0.0656 -s 2 -d 1 -p cbr -e 210 -c 0 -i 1 -a 0 -x {2.1 1073741825.1 0 ------- null}
+ -t 0.0656 -s 1 -d 4 -p cbr -e 210 -c 0 -i 1 -a 0 -x {2.1 1073741825.1 0 ------- null}
+ -t 0.0656 -s 1 -d 0 -p cbr -e 210 -c 0 -i 1 -a 0 -x {2.1 1073741825.1 0 ------- null}
- -t 0.0656 -s 1 -d 0 -p cbr -e 210 -c 0 -i 1 -a 0 -x {2.1 1073741825.1 0 ------- null}
h -t 0.0656 -s 1 -d 0 -p cbr -e 210 -c 0 -i 1 -a 0 -x {2.1 1073741825.1 -1 ------- null}
+ -t 0.0656 -s 1 -d 3 -p cbr -e 210 -c 0 -i 1 -a 0 -x {2.1 1073741825.1 0 ------- null}
- -t 0.0668 -s 0 -d 1 -p cbr -e 210 -c 0 -i 6 -a 0 -x {0.1 1073741824.0 3 ------- null}
h -t 0.0668 -s 0 -d 1 -p cbr -e 210 -c 0 -i 6 -a 0 -x {0.1 1073741824.0 -1 ------- null}
- -t 0.0668 -s 2 -d 1 -p cbr -e 210 -c 0 -i 7 -a 0 -x {2.1 1073741825.1 3 ------- null}
h -t 0.0668 -s 2 -d 1 -p cbr -e 210 -c 0 -i 7 -a 0 -x {2.1 1073741825.1 -1 ------- null}
+ -t 0.06875 -s 0 -d 1 -p cbr -e 210 -c 0 -i 10 -a 0 -x {0.1 1073741824.0 5 ------- null}
+ -t 0.06875 -s 2 -d 1 -p cbr -e 210 -c 0 -i 11 -a 0 -x {2.1 1073741825.1 5 ------- null}
- -t 0.06896 -s 1 -d 3 -p cbr -e 210 -c 0 -i 1 -a 0 -x {2.1 1073741825.1 0 ------- null}
h -t 0.06896 -s 1 -d 3 -p cbr -e 210 -c 0 -i 1 -a 0 -x {2.1 1073741825.1 -1 ------- null}
r -t 0.0712 -s 0 -d 1 -p cbr -e 210 -c 0 -i 2 -a 0 -x {0.1 1073741824.0 1 ------- null}
+ -t 0.0712 -s 1 -d 4 -p cbr -e 210 -c 0 -i 2 -a 0 -x {0.1 1073741824.0 1 ------- null}
+ -t 0.0712 -s 1 -d 2 -p cbr -e 210 -c 0 -i 2 -a 0 -x {0.1 1073741824.0 1 ------- null}
+ -t 0.0712 -s 1 -d 3 -p cbr -e 210 -c 0 -i 2 -a 0 -x {0.1 1073741824.0 1 ------- null}
r -t 0.0712 -s 2 -d 1 -p cbr -e 210 -c 0 -i 3 -a 0 -x {2.1 1073741825.1 1 ------- null}
+ -t 0.0712 -s 1 -d 4 -p cbr -e 210 -c 0 -i 3 -a 0 -x {2.1 1073741825.1 1 ------- null}
+ -t 0.0712 -s 1 -d 0 -p cbr -e 210 -c 0 -i 3 -a 0 -x {2.1 1073741825.1 1 ------- null}
+ -t 0.0712 -s 1 -d 3 -p cbr -e 210 -c 0 -i 3 -a 0 -x {2.1 1073741825.1 1 ------- null}
- -t 0.0712 -s 1 -d 4 -p cbr -e 210 -c 0 -i 1 -a 0 -x {2.1 1073741825.1 0 ------- null}
h -t 0.0712 -s 1 -d 4 -p cbr -e 210 -c 0 -i 1 -a 0 -x {2.1 1073741825.1 -1 ------- null}
- -t 0.0712 -s 1 -d 2 -p cbr -e 210 -c 0 -i 2 -a 0 -x {0.1 1073741824.0 1 ------- null}
h -t 0.0712 -s 1 -d 2 -p cbr -e 210 -c 0 -i 2 -a 0 -x {0.1 1073741824.0 -1 ------- null}
- -t 0.0712 -s 1 -d 0 -p cbr -e 210 -c 0 -i 3 -a 0 -x {2.1 1073741825.1 1 ------- null}
h -t 0.0712 -s 1 -d 0 -p cbr -e 210 -c 0 -i 3 -a 0 -x {2.1 1073741825.1 -1 ------- null}
- -t 0.07232 -s 1 -d 3 -p cbr -e 210 -c 0 -i 2 -a 0 -x {0.1 1073741824.0 1 ------- null}
h -t 0.07232 -s 1 -d 3 -p cbr -e 210 -c 0 -i 2 -a 0 -x {0.1 1073741824.0 -1 ------- null}
- -t 0.0724 -s 0 -d 1 -p cbr -e 210 -c 0 -i 8 -a 0 -x {0.1 1073741824.0 4 ------- null}
h -t 0.0724 -s 0 -d 1 -p cbr -e 210 -c 0 -i 8 -a 0 -x {0.1 1073741824.0 -1 ------- null}
- -t 0.0724 -s 2 -d 1 -p cbr -e 210 -c 0 -i 9 -a 0 -x {2.1 1073741825.1 4 ------- null}
h -t 0.0724 -s 2 -d 1 -p cbr -e 210 -c 0 -i 9 -a 0 -x {2.1 1073741825.1 -1 ------- null}
+ -t 0.0725 -s 0 -d 1 -p cbr -e 210 -c 0 -i 12 -a 0 -x {0.1 1073741824.0 6 ------- null}
+ -t 0.0725 -s 2 -d 1 -p cbr -e 210 -c 0 -i 13 -a 0 -x {2.1 1073741825.1 6 ------- null}
- -t 0.07568 -s 1 -d 3 -p cbr -e 210 -c 0 -i 3 -a 0 -x {2.1 1073741825.1 1 ------- null}
h -t 0.07568 -s 1 -d 3 -p cbr -e 210 -c 0 -i 3 -a 0 -x {2.1 1073741825.1 -1 ------- null}
+ -t 0.07625 -s 0 -d 1 -p cbr -e 210 -c 0 -i 14 -a 0 -x {0.1 1073741824.0 7 ------- null}
+ -t 0.07625 -s 2 -d 1 -p cbr -e 210 -c 0 -i 15 -a 0 -x {2.1 1073741825.1 7 ------- null}
- -t 0.0768 -s 1 -d 4 -p cbr -e 210 -c 0 -i 2 -a 0 -x {0.1 1073741824.0 1 ------- null}
h -t 0.0768 -s 1 -d 4 -p cbr -e 210 -c 0 -i 2 -a 0 -x {0.1 1073741824.0 -1 ------- null}
r -t 0.0768 -s 0 -d 1 -p cbr -e 210 -c 0 -i 4 -a 0 -x {0.1 1073741824.0 2 ------- null}
+ -t 0.0768 -s 1 -d 4 -p cbr -e 210 -c 0 -i 4 -a 0 -x {0.1 1073741824.0 2 ------- null}
+ -t 0.0768 -s 1 -d 2 -p cbr -e 210 -c 0 -i 4 -a 0 -x {0.1 1073741824.0 2 ------- null}
- -t 0.0768 -s 1 -d 2 -p cbr -e 210 -c 0 -i 4 -a 0 -x {0.1 1073741824.0 2 ------- null}
h -t 0.0768 -s 1 -d 2 -p cbr -e 210 -c 0 -i 4 -a 0 -x {0.1 1073741824.0 -1 ------- null}
+ -t 0.0768 -s 1 -d 3 -p cbr -e 210 -c 0 -i 4 -a 0 -x {0.1 1073741824.0 2 ------- null}
r -t 0.0768 -s 2 -d 1 -p cbr -e 210 -c 0 -i 5 -a 0 -x {2.1 1073741825.1 2 ------- null}
+ -t 0.0768 -s 1 -d 4 -p cbr -e 210 -c 0 -i 5 -a 0 -x {2.1 1073741825.1 2 ------- null}
+ -t 0.0768 -s 1 -d 0 -p cbr -e 210 -c 0 -i 5 -a 0 -x {2.1 1073741825.1 2 ------- null}
- -t 0.0768 -s 1 -d 0 -p cbr -e 210 -c 0 -i 5 -a 0 -x {2.1 1073741825.1 2 ------- null}
h -t 0.0768 -s 1 -d 0 -p cbr -e 210 -c 0 -i 5 -a 0 -x {2.1 1073741825.1 -1 ------- null}
+ -t 0.0768 -s 1 -d 3 -p cbr -e 210 -c 0 -i 5 -a 0 -x {2.1 1073741825.1 2 ------- null}
- -t 0.078 -s 0 -d 1 -p cbr -e 210 -c 0 -i 10 -a 0 -x {0.1 1073741824.0 5 ------- null}
h -t 0.078 -s 0 -d 1 -p cbr -e 210 -c 0 -i 10 -a 0 -x {0.1 1073741824.0 -1 ------- null}
- -t 0.078 -s 2 -d 1 -p cbr -e 210 -c 0 -i 11 -a 0 -x {2.1 1073741825.1 5 ------- null}
h -t 0.078 -s 2 -d 1 -p cbr -e 210 -c 0 -i 11 -a 0 -x {2.1 1073741825.1 -1 ------- null}
r -t 0.07896 -s 1 -d 3 -p cbr -e 210 -c 0 -i 0 -a 0 -x {0.1 1073741824.0 0 ------- null}
+ -t 0.07896 -s 3 -d 1 -p prune -e 80 -c 30 -i 16 -a 30 -x {3.0 1.0 -1 ------- null}
- -t 0.07896 -s 3 -d 1 -p prune -e 80 -c 30 -i 16 -a 30 -x {3.0 1.0 -1 ------- null}
h -t 0.07896 -s 3 -d 1 -p prune -e 80 -c 30 -i 16 -a 30 -x {3.0 1.0 -1 ------- null}
- -t 0.07904 -s 1 -d 3 -p cbr -e 210 -c 0 -i 4 -a 0 -x {0.1 1073741824.0 2 ------- null}
h -t 0.07904 -s 1 -d 3 -p cbr -e 210 -c 0 -i 4 -a 0 -x {0.1 1073741824.0 -1 ------- null}
+ -t 0.08 -s 0 -d 1 -p cbr -e 210 -c 0 -i 17 -a 0 -x {0.1 1073741824.0 8 ------- null}
+ -t 0.08 -s 2 -d 1 -p cbr -e 210 -c 0 -i 18 -a 0 -x {2.1 1073741825.1 8 ------- null}
r -t 0.0812 -s 1 -d 4 -p cbr -e 210 -c 0 -i 0 -a 0 -x {0.1 1073741824.0 0 ------- null}
+ -t 0.0812 -s 4 -d 1 -p prune -e 80 -c 30 -i 19 -a 30 -x {4.0 1.0 -1 ------- null}
- -t 0.0812 -s 4 -d 1 -p prune -e 80 -c 30 -i 19 -a 30 -x {4.0 1.0 -1 ------- null}
h -t 0.0812 -s 4 -d 1 -p prune -e 80 -c 30 -i 19 -a 30 -x {4.0 1.0 -1 ------- null}
r -t 0.0812 -s 1 -d 2 -p cbr -e 210 -c 0 -i 0 -a 0 -x {0.1 1073741824.0 0 ------- null}
+ -t 0.0812 -s 2 -d 1 -p prune -e 80 -c 30 -i 20 -a 30 -x {2.0 1.0 -1 ------- null}
r -t 0.0812 -s 1 -d 0 -p cbr -e 210 -c 0 -i 1 -a 0 -x {2.1 1073741825.1 0 ------- null}
+ -t 0.0812 -s 0 -d 1 -p prune -e 80 -c 30 -i 21 -a 30 -x {0.0 1.0 -1 ------- null}
r -t 0.08232 -s 1 -d 3 -p cbr -e 210 -c 0 -i 1 -a 0 -x {2.1 1073741825.1 0 ------- null}
+ -t 0.08232 -s 3 -d 1 -p prune -e 80 -c 30 -i 22 -a 30 -x {3.0 1.0 -1 ------- null}
- -t 0.08232 -s 3 -d 1 -p prune -e 80 -c 30 -i 22 -a 30 -x {3.0 1.0 -1 ------- null}
h -t 0.08232 -s 3 -d 1 -p prune -e 80 -c 30 -i 22 -a 30 -x {3.0 1.0 -1 ------- null}
- -t 0.0824 -s 1 -d 4 -p cbr -e 210 -c 0 -i 3 -a 0 -x {2.1 1073741825.1 1 ------- null}
h -t 0.0824 -s 1 -d 4 -p cbr -e 210 -c 0 -i 3 -a 0 -x {2.1 1073741825.1 -1 ------- null}
r -t 0.0824 -s 0 -d 1 -p cbr -e 210 -c 0 -i 6 -a 0 -x {0.1 1073741824.0 3 ------- null}
+ -t 0.0824 -s 1 -d 4 -p cbr -e 210 -c 0 -i 6 -a 0 -x {0.1 1073741824.0 3 ------- null}
+ -t 0.0824 -s 1 -d 2 -p cbr -e 210 -c 0 -i 6 -a 0 -x {0.1 1073741824.0 3 ------- null}
+ -t 0.0824 -s 1 -d 3 -p cbr -e 210 -c 0 -i 6 -a 0 -x {0.1 1073741824.0 3 ------- null}
r -t 0.0824 -s 2 -d 1 -p cbr -e 210 -c 0 -i 7 -a 0 -x {2.1 1073741825.1 3 ------- null}
+ -t 0.0824 -s 1 -d 4 -p cbr -e 210 -c 0 -i 7 -a 0 -x {2.1 1073741825.1 3 ------- null}
+ -t 0.0824 -s 1 -d 0 -p cbr -e 210 -c 0 -i 7 -a 0 -x {2.1 1073741825.1 3 ------- null}
+ -t 0.0824 -s 1 -d 3 -p cbr -e 210 -c 0 -i 7 -a 0 -x {2.1 1073741825.1 3 ------- null}
- -t 0.0824 -s 1 -d 2 -p cbr -e 210 -c 0 -i 6 -a 0 -x {0.1 1073741824.0 3 ------- null}
h -t 0.0824 -s 1 -d 2 -p cbr -e 210 -c 0 -i 6 -a 0 -x {0.1 1073741824.0 -1 ------- null}
- -t 0.0824 -s 1 -d 0 -p cbr -e 210 -c 0 -i 7 -a 0 -x {2.1 1073741825.1 3 ------- null}
h -t 0.0824 -s 1 -d 0 -p cbr -e 210 -c 0 -i 7 -a 0 -x {2.1 1073741825.1 -1 ------- null}
- -t 0.0824 -s 1 -d 3 -p cbr -e 210 -c 0 -i 5 -a 0 -x {2.1 1073741825.1 2 ------- null}
h -t 0.0824 -s 1 -d 3 -p cbr -e 210 -c 0 -i 5 -a 0 -x {2.1 1073741825.1 -1 ------- null}
- -t 0.0836 -s 0 -d 1 -p cbr -e 210 -c 0 -i 12 -a 0 -x {0.1 1073741824.0 6 ------- null}
h -t 0.0836 -s 0 -d 1 -p cbr -e 210 -c 0 -i 12 -a 0 -x {0.1 1073741824.0 -1 ------- null}
- -t 0.0836 -s 2 -d 1 -p cbr -e 210 -c 0 -i 13 -a 0 -x {2.1 1073741825.1 6 ------- null}
h -t 0.0836 -s 2 -d 1 -p cbr -e 210 -c 0 -i 13 -a 0 -x {2.1 1073741825.1 -1 ------- null}
+ -t 0.08375 -s 0 -d 1 -p cbr -e 210 -c 0 -i 23 -a 0 -x {0.1 1073741824.0 9 ------- null}
+ -t 0.08375 -s 2 -d 1 -p cbr -e 210 -c 0 -i 24 -a 0 -x {2.1 1073741825.1 9 ------- null}
r -t 0.08568 -s 1 -d 3 -p cbr -e 210 -c 0 -i 2 -a 0 -x {0.1 1073741824.0 1 ------- null}
+ -t 0.08568 -s 3 -d 1 -p prune -e 80 -c 30 -i 25 -a 30 -x {3.0 1.0 -1 ------- null}
- -t 0.08568 -s 3 -d 1 -p prune -e 80 -c 30 -i 25 -a 30 -x {3.0 1.0 -1 ------- null}
h -t 0.08568 -s 3 -d 1 -p prune -e 80 -c 30 -i 25 -a 30 -x {3.0 1.0 -1 ------- null}
- -t 0.08576 -s 1 -d 3 -p cbr -e 210 -c 0 -i 6 -a 0 -x {0.1 1073741824.0 3 ------- null}
h -t 0.08576 -s 1 -d 3 -p cbr -e 210 -c 0 -i 6 -a 0 -x {0.1 1073741824.0 -1 ------- null}
r -t 0.0868 -s 1 -d 4 -p cbr -e 210 -c 0 -i 1 -a 0 -x {2.1 1073741825.1 0 ------- null}
+ -t 0.0868 -s 4 -d 1 -p prune -e 80 -c 30 -i 26 -a 30 -x {4.0 1.0 -1 ------- null}
- -t 0.0868 -s 4 -d 1 -p prune -e 80 -c 30 -i 26 -a 30 -x {4.0 1.0 -1 ------- null}
h -t 0.0868 -s 4 -d 1 -p prune -e 80 -c 30 -i 26 -a 30 -x {4.0 1.0 -1 ------- null}
r -t 0.0868 -s 1 -d 2 -p cbr -e 210 -c 0 -i 2 -a 0 -x {0.1 1073741824.0 1 ------- null}
+ -t 0.0868 -s 2 -d 1 -p prune -e 80 -c 30 -i 27 -a 30 -x {2.0 1.0 -1 ------- null}
r -t 0.0868 -s 1 -d 0 -p cbr -e 210 -c 0 -i 3 -a 0 -x {2.1 1073741825.1 1 ------- null}
+ -t 0.0868 -s 0 -d 1 -p prune -e 80 -c 30 -i 28 -a 30 -x {0.0 1.0 -1 ------- null}
+ -t 0.0875 -s 0 -d 1 -p cbr -e 210 -c 0 -i 29 -a 0 -x {0.1 1073741824.0 10 ------- null}
+ -t 0.0875 -s 2 -d 1 -p cbr -e 210 -c 0 -i 30 -a 0 -x {2.1 1073741825.1 10 ------- null}
- -t 0.088 -s 1 -d 4 -p cbr -e 210 -c 0 -i 4 -a 0 -x {0.1 1073741824.0 2 ------- null}
h -t 0.088 -s 1 -d 4 -p cbr -e 210 -c 0 -i 4 -a 0 -x {0.1 1073741824.0 -1 ------- null}
r -t 0.088 -s 0 -d 1 -p cbr -e 210 -c 0 -i 8 -a 0 -x {0.1 1073741824.0 4 ------- null}
+ -t 0.088 -s 1 -d 4 -p cbr -e 210 -c 0 -i 8 -a 0 -x {0.1 1073741824.0 4 ------- null}
+ -t 0.088 -s 1 -d 2 -p cbr -e 210 -c 0 -i 8 -a 0 -x {0.1 1073741824.0 4 ------- null}
+ -t 0.088 -s 1 -d 3 -p cbr -e 210 -c 0 -i 8 -a 0 -x {0.1 1073741824.0 4 ------- null}
r -t 0.088 -s 2 -d 1 -p cbr -e 210 -c 0 -i 9 -a 0 -x {2.1 1073741825.1 4 ------- null}
+ -t 0.088 -s 1 -d 4 -p cbr -e 210 -c 0 -i 9 -a 0 -x {2.1 1073741825.1 4 ------- null}
+ -t 0.088 -s 1 -d 0 -p cbr -e 210 -c 0 -i 9 -a 0 -x {2.1 1073741825.1 4 ------- null}
+ -t 0.088 -s 1 -d 3 -p cbr -e 210 -c 0 -i 9 -a 0 -x {2.1 1073741825.1 4 ------- null}
- -t 0.088 -s 1 -d 2 -p cbr -e 210 -c 0 -i 8 -a 0 -x {0.1 1073741824.0 4 ------- null}
h -t 0.088 -s 1 -d 2 -p cbr -e 210 -c 0 -i 8 -a 0 -x {0.1 1073741824.0 -1 ------- null}
- -t 0.088 -s 1 -d 0 -p cbr -e 210 -c 0 -i 9 -a 0 -x {2.1 1073741825.1 4 ------- null}
h -t 0.088 -s 1 -d 0 -p cbr -e 210 -c 0 -i 9 -a 0 -x {2.1 1073741825.1 -1 ------- null}
r -t 0.08904 -s 1 -d 3 -p cbr -e 210 -c 0 -i 3 -a 0 -x {2.1 1073741825.1 1 ------- null}
+ -t 0.08904 -s 3 -d 1 -p prune -e 80 -c 30 -i 31 -a 30 -x {3.0 1.0 -1 ------- null}
- -t 0.08904 -s 3 -d 1 -p prune -e 80 -c 30 -i 31 -a 30 -x {3.0 1.0 -1 ------- null}
h -t 0.08904 -s 3 -d 1 -p prune -e 80 -c 30 -i 31 -a 30 -x {3.0 1.0 -1 ------- null}
- -t 0.08912 -s 1 -d 3 -p cbr -e 210 -c 0 -i 7 -a 0 -x {2.1 1073741825.1 3 ------- null}
h -t 0.08912 -s 1 -d 3 -p cbr -e 210 -c 0 -i 7 -a 0 -x {2.1 1073741825.1 -1 ------- null}
- -t 0.0892 -s 0 -d 1 -p cbr -e 210 -c 0 -i 14 -a 0 -x {0.1 1073741824.0 7 ------- null}
h -t 0.0892 -s 0 -d 1 -p cbr -e 210 -c 0 -i 14 -a 0 -x {0.1 1073741824.0 -1 ------- null}
- -t 0.0892 -s 2 -d 1 -p cbr -e 210 -c 0 -i 15 -a 0 -x {2.1 1073741825.1 7 ------- null}
h -t 0.0892 -s 2 -d 1 -p cbr -e 210 -c 0 -i 15 -a 0 -x {2.1 1073741825.1 -1 ------- null}
r -t 0.09024 -s 3 -d 1 -p prune -e 80 -c 30 -i 16 -a 30 -x {3.0 1.0 -1 ------- null}
+ -t 0.09125 -s 0 -d 1 -p cbr -e 210 -c 0 -i 32 -a 0 -x {0.1 1073741824.0 11 ------- null}
+ -t 0.09125 -s 2 -d 1 -p cbr -e 210 -c 0 -i 33 -a 0 -x {2.1 1073741825.1 11 ------- null}
r -t 0.0924 -s 1 -d 4 -p cbr -e 210 -c 0 -i 2 -a 0 -x {0.1 1073741824.0 1 ------- null}
+ -t 0.0924 -s 4 -d 1 -p prune -e 80 -c 30 -i 34 -a 30 -x {4.0 1.0 -1 ------- null}
- -t 0.0924 -s 4 -d 1 -p prune -e 80 -c 30 -i 34 -a 30 -x {4.0 1.0 -1 ------- null}
h -t 0.0924 -s 4 -d 1 -p prune -e 80 -c 30 -i 34 -a 30 -x {4.0 1.0 -1 ------- null}
r -t 0.0924 -s 1 -d 2 -p cbr -e 210 -c 0 -i 4 -a 0 -x {0.1 1073741824.0 2 ------- null}
+ -t 0.0924 -s 2 -d 1 -p prune -e 80 -c 30 -i 35 -a 30 -x {2.0 1.0 -1 ------- null}
r -t 0.0924 -s 1 -d 0 -p cbr -e 210 -c 0 -i 5 -a 0 -x {2.1 1073741825.1 2 ------- null}
+ -t 0.0924 -s 0 -d 1 -p prune -e 80 -c 30 -i 36 -a 30 -x {0.0 1.0 -1 ------- null}
r -t 0.0924 -s 1 -d 3 -p cbr -e 210 -c 0 -i 4 -a 0 -x {0.1 1073741824.0 2 ------- null}
+ -t 0.0924 -s 3 -d 1 -p prune -e 80 -c 30 -i 37 -a 30 -x {3.0 1.0 -1 ------- null}
- -t 0.0924 -s 3 -d 1 -p prune -e 80 -c 30 -i 37 -a 30 -x {3.0 1.0 -1 ------- null}
h -t 0.0924 -s 3 -d 1 -p prune -e 80 -c 30 -i 37 -a 30 -x {3.0 1.0 -1 ------- null}
- -t 0.09248 -s 1 -d 3 -p cbr -e 210 -c 0 -i 8 -a 0 -x {0.1 1073741824.0 4 ------- null}
h -t 0.09248 -s 1 -d 3 -p cbr -e 210 -c 0 -i 8 -a 0 -x {0.1 1073741824.0 -1 ------- null}
r -t 0.0933333333333333 -s 4 -d 1 -p prune -e 80 -c 30 -i 19 -a 30 -x {4.0 1.0 -1 ------- null}
- -t 0.0936 -s 1 -d 4 -p cbr -e 210 -c 0 -i 5 -a 0 -x {2.1 1073741825.1 2 ------- null}
h -t 0.0936 -s 1 -d 4 -p cbr -e 210 -c 0 -i 5 -a 0 -x {2.1 1073741825.1 -1 ------- null}
r -t 0.0936 -s 0 -d 1 -p cbr -e 210 -c 0 -i 10 -a 0 -x {0.1 1073741824.0 5 ------- null}
+ -t 0.0936 -s 1 -d 2 -p cbr -e 210 -c 0 -i 10 -a 0 -x {0.1 1073741824.0 5 ------- null}
r -t 0.0936 -s 2 -d 1 -p cbr -e 210 -c 0 -i 11 -a 0 -x {2.1 1073741825.1 5 ------- null}
+ -t 0.0936 -s 1 -d 4 -p cbr -e 210 -c 0 -i 11 -a 0 -x {2.1 1073741825.1 5 ------- null}
+ -t 0.0936 -s 1 -d 0 -p cbr -e 210 -c 0 -i 11 -a 0 -x {2.1 1073741825.1 5 ------- null}
+ -t 0.0936 -s 1 -d 3 -p cbr -e 210 -c 0 -i 11 -a 0 -x {2.1 1073741825.1 5 ------- null}
- -t 0.0936 -s 1 -d 2 -p cbr -e 210 -c 0 -i 10 -a 0 -x {0.1 1073741824.0 5 ------- null}
h -t 0.0936 -s 1 -d 2 -p cbr -e 210 -c 0 -i 10 -a 0 -x {0.1 1073741824.0 -1 ------- null}
- -t 0.0936 -s 1 -d 0 -p cbr -e 210 -c 0 -i 11 -a 0 -x {2.1 1073741825.1 5 ------- null}
h -t 0.0936 -s 1 -d 0 -p cbr -e 210 -c 0 -i 11 -a 0 -x {2.1 1073741825.1 -1 ------- null}
r -t 0.0936 -s 3 -d 1 -p prune -e 80 -c 30 -i 22 -a 30 -x {3.0 1.0 -1 ------- null}
- -t 0.0948 -s 0 -d 1 -p cbr -e 210 -c 0 -i 17 -a 0 -x {0.1 1073741824.0 8 ------- null}
h -t 0.0948 -s 0 -d 1 -p cbr -e 210 -c 0 -i 17 -a 0 -x {0.1 1073741824.0 -1 ------- null}
- -t 0.0948 -s 2 -d 1 -p cbr -e 210 -c 0 -i 18 -a 0 -x {2.1 1073741825.1 8 ------- null}
h -t 0.0948 -s 2 -d 1 -p cbr -e 210 -c 0 -i 18 -a 0 -x {2.1 1073741825.1 -1 ------- null}
+ -t 0.095 -s 0 -d 1 -p cbr -e 210 -c 0 -i 38 -a 0 -x {0.1 1073741824.0 12 ------- null}
+ -t 0.095 -s 2 -d 1 -p cbr -e 210 -c 0 -i 39 -a 0 -x {2.1 1073741825.1 12 ------- null}
r -t 0.09576 -s 1 -d 3 -p cbr -e 210 -c 0 -i 5 -a 0 -x {2.1 1073741825.1 2 ------- null}
+ -t 0.09576 -s 3 -d 1 -p prune -e 80 -c 30 -i 40 -a 30 -x {3.0 1.0 -1 ------- null}
- -t 0.09576 -s 3 -d 1 -p prune -e 80 -c 30 -i 40 -a 30 -x {3.0 1.0 -1 ------- null}
h -t 0.09576 -s 3 -d 1 -p prune -e 80 -c 30 -i 40 -a 30 -x {3.0 1.0 -1 ------- null}
- -t 0.09584 -s 1 -d 3 -p cbr -e 210 -c 0 -i 9 -a 0 -x {2.1 1073741825.1 4 ------- null}
h -t 0.09584 -s 1 -d 3 -p cbr -e 210 -c 0 -i 9 -a 0 -x {2.1 1073741825.1 -1 ------- null}
r -t 0.09696 -s 3 -d 1 -p prune -e 80 -c 30 -i 25 -a 30 -x {3.0 1.0 -1 ------- null}
r -t 0.098 -s 1 -d 4 -p cbr -e 210 -c 0 -i 3 -a 0 -x {2.1 1073741825.1 1 ------- null}
+ -t 0.098 -s 4 -d 1 -p prune -e 80 -c 30 -i 41 -a 30 -x {4.0 1.0 -1 ------- null}
- -t 0.098 -s 4 -d 1 -p prune -e 80 -c 30 -i 41 -a 30 -x {4.0 1.0 -1 ------- null}
h -t 0.098 -s 4 -d 1 -p prune -e 80 -c 30 -i 41 -a 30 -x {4.0 1.0 -1 ------- null}
r -t 0.098 -s 1 -d 2 -p cbr -e 210 -c 0 -i 6 -a 0 -x {0.1 1073741824.0 3 ------- null}
+ -t 0.098 -s 2 -d 1 -p prune -e 80 -c 30 -i 42 -a 30 -x {2.0 1.0 -1 ------- null}
r -t 0.098 -s 1 -d 0 -p cbr -e 210 -c 0 -i 7 -a 0 -x {2.1 1073741825.1 3 ------- null}
+ -t 0.098 -s 0 -d 1 -p prune -e 80 -c 30 -i 43 -a 30 -x {0.0 1.0 -1 ------- null}
+ -t 0.09875 -s 0 -d 1 -p cbr -e 210 -c 0 -i 44 -a 0 -x {0.1 1073741824.0 13 ------- null}
+ -t 0.09875 -s 2 -d 1 -p cbr -e 210 -c 0 -i 45 -a 0 -x {2.1 1073741825.1 13 ------- null}
r -t 0.0989333333333333 -s 4 -d 1 -p prune -e 80 -c 30 -i 26 -a 30 -x {4.0 1.0 -1 ------- null}
r -t 0.09912 -s 1 -d 3 -p cbr -e 210 -c 0 -i 6 -a 0 -x {0.1 1073741824.0 3 ------- null}
+ -t 0.09912 -s 3 -d 1 -p prune -e 80 -c 30 -i 46 -a 30 -x {3.0 1.0 -1 ------- null}
- -t 0.09912 -s 3 -d 1 -p prune -e 80 -c 30 -i 46 -a 30 -x {3.0 1.0 -1 ------- null}
h -t 0.09912 -s 3 -d 1 -p prune -e 80 -c 30 -i 46 -a 30 -x {3.0 1.0 -1 ------- null}
- -t 0.0992 -s 1 -d 4 -p cbr -e 210 -c 0 -i 6 -a 0 -x {0.1 1073741824.0 3 ------- null}
h -t 0.0992 -s 1 -d 4 -p cbr -e 210 -c 0 -i 6 -a 0 -x {0.1 1073741824.0 -1 ------- null}
r -t 0.0992 -s 0 -d 1 -p cbr -e 210 -c 0 -i 12 -a 0 -x {0.1 1073741824.0 6 ------- null}
+ -t 0.0992 -s 1 -d 2 -p cbr -e 210 -c 0 -i 12 -a 0 -x {0.1 1073741824.0 6 ------- null}
r -t 0.0992 -s 2 -d 1 -p cbr -e 210 -c 0 -i 13 -a 0 -x {2.1 1073741825.1 6 ------- null}
+ -t 0.0992 -s 1 -d 0 -p cbr -e 210 -c 0 -i 13 -a 0 -x {2.1 1073741825.1 6 ------- null}
- -t 0.0992 -s 1 -d 2 -p cbr -e 210 -c 0 -i 12 -a 0 -x {0.1 1073741824.0 6 ------- null}
h -t 0.0992 -s 1 -d 2 -p cbr -e 210 -c 0 -i 12 -a 0 -x {0.1 1073741824.0 -1 ------- null}
- -t 0.0992 -s 1 -d 0 -p cbr -e 210 -c 0 -i 13 -a 0 -x {2.1 1073741825.1 6 ------- null}
h -t 0.0992 -s 1 -d 0 -p cbr -e 210 -c 0 -i 13 -a 0 -x {2.1 1073741825.1 -1 ------- null}
- -t 0.0992 -s 1 -d 3 -p cbr -e 210 -c 0 -i 11 -a 0 -x {2.1 1073741825.1 5 ------- null}
h -t 0.0992 -s 1 -d 3 -p cbr -e 210 -c 0 -i 11 -a 0 -x {2.1 1073741825.1 -1 ------- null}
v -t 0.1 -e sim_annotation 0.1 0.10000000000000001 3 join-group 1073741824
+ -t 0.1 -s 3 -d 1 -p graft -e 80 -c 31 -i 47 -a 31 -x {3.0 1.0 -1 ------- null}
r -t 0.10032 -s 3 -d 1 -p prune -e 80 -c 30 -i 31 -a 30 -x {3.0 1.0 -1 ------- null}
- -t 0.1004 -s 0 -d 1 -p prune -e 80 -c 30 -i 21 -a 30 -x {0.0 1.0 -1 ------- null}
h -t 0.1004 -s 0 -d 1 -p prune -e 80 -c 30 -i 21 -a 30 -x {0.0 1.0 -1 ------- null}
- -t 0.1004 -s 2 -d 1 -p prune -e 80 -c 30 -i 20 -a 30 -x {2.0 1.0 -1 ------- null}
h -t 0.1004 -s 2 -d 1 -p prune -e 80 -c 30 -i 20 -a 30 -x {2.0 1.0 -1 ------- null}
- -t 0.1004 -s 3 -d 1 -p graft -e 80 -c 31 -i 47 -a 31 -x {3.0 1.0 -1 ------- null}
h -t 0.1004 -s 3 -d 1 -p graft -e 80 -c 31 -i 47 -a 31 -x {3.0 1.0 -1 ------- null}
r -t 0.10248 -s 1 -d 3 -p cbr -e 210 -c 0 -i 7 -a 0 -x {2.1 1073741825.1 3 ------- null}
+ -t 0.10248 -s 3 -d 1 -p prune -e 80 -c 30 -i 48 -a 30 -x {3.0 1.0 -1 ------- null}
- -t 0.10248 -s 3 -d 1 -p prune -e 80 -c 30 -i 48 -a 30 -x {3.0 1.0 -1 ------- null}
h -t 0.10248 -s 3 -d 1 -p prune -e 80 -c 30 -i 48 -a 30 -x {3.0 1.0 -1 ------- null}
+ -t 0.1025 -s 0 -d 1 -p cbr -e 210 -c 0 -i 49 -a 0 -x {0.1 1073741824.0 14 ------- null}
+ -t 0.1025 -s 2 -d 1 -p cbr -e 210 -c 0 -i 50 -a 0 -x {2.1 1073741825.1 14 ------- null}
- -t 0.102533333333333 -s 0 -d 1 -p cbr -e 210 -c 0 -i 23 -a 0 -x {0.1 1073741824.0 9 ------- null}
h -t 0.102533333333333 -s 0 -d 1 -p cbr -e 210 -c 0 -i 23 -a 0 -x {0.1 1073741824.0 -1 ------- null}
- -t 0.102533333333333 -s 2 -d 1 -p cbr -e 210 -c 0 -i 24 -a 0 -x {2.1 1073741825.1 9 ------- null}
h -t 0.102533333333333 -s 2 -d 1 -p cbr -e 210 -c 0 -i 24 -a 0 -x {2.1 1073741825.1 -1 ------- null}
r -t 0.1036 -s 1 -d 4 -p cbr -e 210 -c 0 -i 4 -a 0 -x {0.1 1073741824.0 2 ------- null}
+ -t 0.1036 -s 4 -d 1 -p prune -e 80 -c 30 -i 51 -a 30 -x {4.0 1.0 -1 ------- null}
- -t 0.1036 -s 4 -d 1 -p prune -e 80 -c 30 -i 51 -a 30 -x {4.0 1.0 -1 ------- null}
h -t 0.1036 -s 4 -d 1 -p prune -e 80 -c 30 -i 51 -a 30 -x {4.0 1.0 -1 ------- null}
r -t 0.1036 -s 1 -d 2 -p cbr -e 210 -c 0 -i 8 -a 0 -x {0.1 1073741824.0 4 ------- null}
+ -t 0.1036 -s 2 -d 1 -p prune -e 80 -c 30 -i 52 -a 30 -x {2.0 1.0 -1 ------- null}
r -t 0.1036 -s 1 -d 0 -p cbr -e 210 -c 0 -i 9 -a 0 -x {2.1 1073741825.1 4 ------- null}
+ -t 0.1036 -s 0 -d 1 -p prune -e 80 -c 30 -i 53 -a 30 -x {0.0 1.0 -1 ------- null}
r -t 0.10368 -s 3 -d 1 -p prune -e 80 -c 30 -i 37 -a 30 -x {3.0 1.0 -1 ------- null}
r -t 0.104533333333333 -s 4 -d 1 -p prune -e 80 -c 30 -i 34 -a 30 -x {4.0 1.0 -1 ------- null}
- -t 0.1048 -s 1 -d 4 -p cbr -e 210 -c 0 -i 7 -a 0 -x {2.1 1073741825.1 3 ------- null}
h -t 0.1048 -s 1 -d 4 -p cbr -e 210 -c 0 -i 7 -a 0 -x {2.1 1073741825.1 -1 ------- null}
r -t 0.1048 -s 0 -d 1 -p cbr -e 210 -c 0 -i 14 -a 0 -x {0.1 1073741824.0 7 ------- null}
+ -t 0.1048 -s 1 -d 2 -p cbr -e 210 -c 0 -i 14 -a 0 -x {0.1 1073741824.0 7 ------- null}
r -t 0.1048 -s 2 -d 1 -p cbr -e 210 -c 0 -i 15 -a 0 -x {2.1 1073741825.1 7 ------- null}
+ -t 0.1048 -s 1 -d 0 -p cbr -e 210 -c 0 -i 15 -a 0 -x {2.1 1073741825.1 7 ------- null}
- -t 0.1048 -s 1 -d 2 -p cbr -e 210 -c 0 -i 14 -a 0 -x {0.1 1073741824.0 7 ------- null}
h -t 0.1048 -s 1 -d 2 -p cbr -e 210 -c 0 -i 14 -a 0 -x {0.1 1073741824.0 -1 ------- null}
- -t 0.1048 -s 1 -d 0 -p cbr -e 210 -c 0 -i 15 -a 0 -x {2.1 1073741825.1 7 ------- null}
h -t 0.1048 -s 1 -d 0 -p cbr -e 210 -c 0 -i 15 -a 0 -x {2.1 1073741825.1 -1 ------- null}
r -t 0.10584 -s 1 -d 3 -p cbr -e 210 -c 0 -i 8 -a 0 -x {0.1 1073741824.0 4 ------- null}
+ -t 0.10625 -s 0 -d 1 -p cbr -e 210 -c 0 -i 54 -a 0 -x {0.1 1073741824.0 15 ------- null}
+ -t 0.10625 -s 2 -d 1 -p cbr -e 210 -c 0 -i 55 -a 0 -x {2.1 1073741825.1 15 ------- null}
r -t 0.10704 -s 3 -d 1 -p prune -e 80 -c 30 -i 40 -a 30 -x {3.0 1.0 -1 ------- null}
- -t 0.108133333333333 -s 0 -d 1 -p prune -e 80 -c 30 -i 28 -a 30 -x {0.0 1.0 -1 ------- null}
h -t 0.108133333333333 -s 0 -d 1 -p prune -e 80 -c 30 -i 28 -a 30 -x {0.0 1.0 -1 ------- null}
- -t 0.108133333333333 -s 2 -d 1 -p prune -e 80 -c 30 -i 27 -a 30 -x {2.0 1.0 -1 ------- null}
h -t 0.108133333333333 -s 2 -d 1 -p prune -e 80 -c 30 -i 27 -a 30 -x {2.0 1.0 -1 ------- null}
r -t 0.1092 -s 1 -d 4 -p cbr -e 210 -c 0 -i 5 -a 0 -x {2.1 1073741825.1 2 ------- null}
+ -t 0.1092 -s 4 -d 1 -p prune -e 80 -c 30 -i 56 -a 30 -x {4.0 1.0 -1 ------- null}
- -t 0.1092 -s 4 -d 1 -p prune -e 80 -c 30 -i 56 -a 30 -x {4.0 1.0 -1 ------- null}
h -t 0.1092 -s 4 -d 1 -p prune -e 80 -c 30 -i 56 -a 30 -x {4.0 1.0 -1 ------- null}
r -t 0.1092 -s 1 -d 2 -p cbr -e 210 -c 0 -i 10 -a 0 -x {0.1 1073741824.0 5 ------- null}
+ -t 0.1092 -s 2 -d 1 -p prune -e 80 -c 30 -i 57 -a 30 -x {2.0 1.0 -1 ------- null}
r -t 0.1092 -s 1 -d 0 -p cbr -e 210 -c 0 -i 11 -a 0 -x {2.1 1073741825.1 5 ------- null}
+ -t 0.1092 -s 0 -d 1 -p prune -e 80 -c 30 -i 58 -a 30 -x {0.0 1.0 -1 ------- null}
r -t 0.1092 -s 1 -d 3 -p cbr -e 210 -c 0 -i 9 -a 0 -x {2.1 1073741825.1 4 ------- null}
+ -t 0.1092 -s 3 -d 1 -p prune -e 80 -c 30 -i 59 -a 30 -x {3.0 1.0 -1 ------- null}
- -t 0.1092 -s 3 -d 1 -p prune -e 80 -c 30 -i 59 -a 30 -x {3.0 1.0 -1 ------- null}
h -t 0.1092 -s 3 -d 1 -p prune -e 80 -c 30 -i 59 -a 30 -x {3.0 1.0 -1 ------- null}
+ -t 0.11 -s 0 -d 1 -p cbr -e 210 -c 0 -i 60 -a 0 -x {0.1 1073741824.0 16 ------- null}
+ -t 0.11 -s 2 -d 1 -p cbr -e 210 -c 0 -i 61 -a 0 -x {2.1 1073741825.1 16 ------- null}
r -t 0.110133333333333 -s 4 -d 1 -p prune -e 80 -c 30 -i 41 -a 30 -x {4.0 1.0 -1 ------- null}
- -t 0.110266666666667 -s 0 -d 1 -p cbr -e 210 -c 0 -i 29 -a 0 -x {0.1 1073741824.0 10 ------- null}
h -t 0.110266666666667 -s 0 -d 1 -p cbr -e 210 -c 0 -i 29 -a 0 -x {0.1 1073741824.0 -1 ------- null}
- -t 0.110266666666667 -s 2 -d 1 -p cbr -e 210 -c 0 -i 30 -a 0 -x {2.1 1073741825.1 10 ------- null}
h -t 0.110266666666667 -s 2 -d 1 -p cbr -e 210 -c 0 -i 30 -a 0 -x {2.1 1073741825.1 -1 ------- null}
- -t 0.1104 -s 1 -d 4 -p cbr -e 210 -c 0 -i 8 -a 0 -x {0.1 1073741824.0 4 ------- null}
h -t 0.1104 -s 1 -d 4 -p cbr -e 210 -c 0 -i 8 -a 0 -x {0.1 1073741824.0 -1 ------- null}
r -t 0.1104 -s 0 -d 1 -p cbr -e 210 -c 0 -i 17 -a 0 -x {0.1 1073741824.0 8 ------- null}
+ -t 0.1104 -s 1 -d 2 -p cbr -e 210 -c 0 -i 17 -a 0 -x {0.1 1073741824.0 8 ------- null}
r -t 0.1104 -s 2 -d 1 -p cbr -e 210 -c 0 -i 18 -a 0 -x {2.1 1073741825.1 8 ------- null}
+ -t 0.1104 -s 1 -d 0 -p cbr -e 210 -c 0 -i 18 -a 0 -x {2.1 1073741825.1 8 ------- null}
- -t 0.1104 -s 1 -d 2 -p cbr -e 210 -c 0 -i 17 -a 0 -x {0.1 1073741824.0 8 ------- null}
h -t 0.1104 -s 1 -d 2 -p cbr -e 210 -c 0 -i 17 -a 0 -x {0.1 1073741824.0 -1 ------- null}
- -t 0.1104 -s 1 -d 0 -p cbr -e 210 -c 0 -i 18 -a 0 -x {2.1 1073741825.1 8 ------- null}
h -t 0.1104 -s 1 -d 0 -p cbr -e 210 -c 0 -i 18 -a 0 -x {2.1 1073741825.1 -1 ------- null}
r -t 0.1104 -s 3 -d 1 -p prune -e 80 -c 30 -i 46 -a 30 -x {3.0 1.0 -1 ------- null}
r -t 0.11168 -s 3 -d 1 -p graft -e 80 -c 31 -i 47 -a 31 -x {3.0 1.0 -1 ------- null}
r -t 0.112533333333333 -s 0 -d 1 -p prune -e 80 -c 30 -i 21 -a 30 -x {0.0 1.0 -1 ------- null}
+ -t 0.112533333333333 -s 1 -d 2 -p prune -e 80 -c 30 -i 62 -a 30 -x {1.0 2.0 -1 ------- null}
r -t 0.112533333333333 -s 2 -d 1 -p prune -e 80 -c 30 -i 20 -a 30 -x {2.0 1.0 -1 ------- null}
r -t 0.11256 -s 1 -d 3 -p cbr -e 210 -c 0 -i 11 -a 0 -x {2.1 1073741825.1 5 ------- null}
+ -t 0.11256 -s 3 -d 1 -p prune -e 80 -c 30 -i 63 -a 30 -x {3.0 1.0 -1 ------- null}
- -t 0.11256 -s 3 -d 1 -p prune -e 80 -c 30 -i 63 -a 30 -x {3.0 1.0 -1 ------- null}
h -t 0.11256 -s 3 -d 1 -p prune -e 80 -c 30 -i 63 -a 30 -x {3.0 1.0 -1 ------- null}
+ -t 0.11375 -s 0 -d 1 -p cbr -e 210 -c 0 -i 64 -a 0 -x {0.1 1073741824.0 17 ------- null}
+ -t 0.11375 -s 2 -d 1 -p cbr -e 210 -c 0 -i 65 -a 0 -x {2.1 1073741825.1 17 ------- null}
r -t 0.11376 -s 3 -d 1 -p prune -e 80 -c 30 -i 48 -a 30 -x {3.0 1.0 -1 ------- null}
r -t 0.1148 -s 1 -d 4 -p cbr -e 210 -c 0 -i 6 -a 0 -x {0.1 1073741824.0 3 ------- null}
+ -t 0.1148 -s 4 -d 1 -p prune -e 80 -c 30 -i 66 -a 30 -x {4.0 1.0 -1 ------- null}