+ 0.05 0 1 cbr 210 ------- 0 0.1 1073741824.0 0 0
- 0.05 0 1 cbr 210 ------- 0 0.1 1073741824.0 0 0
+ 0.05 2 1 cbr 210 ------- 0 2.1 1073741825.1 0 1
- 0.05 2 1 cbr 210 ------- 0 2.1 1073741825.1 0 1
+ 0.05375 0 1 cbr 210 ------- 0 0.1 1073741824.0 1 2
+ 0.05375 2 1 cbr 210 ------- 0 2.1 1073741825.1 1 3
- 0.0556 0 1 cbr 210 ------- 0 0.1 1073741824.0 1 2
- 0.0556 2 1 cbr 210 ------- 0 2.1 1073741825.1 1 3
+ 0.0575 0 1 cbr 210 ------- 0 0.1 1073741824.0 2 4
+ 0.0575 2 1 cbr 210 ------- 0 2.1 1073741825.1 2 5
- 0.0612 0 1 cbr 210 ------- 0 0.1 1073741824.0 2 4
- 0.0612 2 1 cbr 210 ------- 0 2.1 1073741825.1 2 5
+ 0.06125 0 1 cbr 210 ------- 0 0.1 1073741824.0 3 6
+ 0.06125 2 1 cbr 210 ------- 0 2.1 1073741825.1 3 7
+ 0.065 0 1 cbr 210 ------- 0 0.1 1073741824.0 4 8
+ 0.065 2 1 cbr 210 ------- 0 2.1 1073741825.1 4 9
r 0.0656 0 1 cbr 210 ------- 0 0.1 1073741824.0 0 0
+ 0.0656 1 4 cbr 210 ------- 0 0.1 1073741824.0 0 0
- 0.0656 1 4 cbr 210 ------- 0 0.1 1073741824.0 0 0
+ 0.0656 1 2 cbr 210 ------- 0 0.1 1073741824.0 0 0
- 0.0656 1 2 cbr 210 ------- 0 0.1 1073741824.0 0 0
+ 0.0656 1 3 cbr 210 ------- 0 0.1 1073741824.0 0 0
- 0.0656 1 3 cbr 210 ------- 0 0.1 1073741824.0 0 0
r 0.0656 2 1 cbr 210 ------- 0 2.1 1073741825.1 0 1
+ 0.0656 1 4 cbr 210 ------- 0 2.1 1073741825.1 0 1
+ 0.0656 1 0 cbr 210 ------- 0 2.1 1073741825.1 0 1
- 0.0656 1 0 cbr 210 ------- 0 2.1 1073741825.1 0 1
+ 0.0656 1 3 cbr 210 ------- 0 2.1 1073741825.1 0 1
- 0.0668 0 1 cbr 210 ------- 0 0.1 1073741824.0 3 6
- 0.0668 2 1 cbr 210 ------- 0 2.1 1073741825.1 3 7
+ 0.06875 0 1 cbr 210 ------- 0 0.1 1073741824.0 5 10
+ 0.06875 2 1 cbr 210 ------- 0 2.1 1073741825.1 5 11
- 0.06896 1 3 cbr 210 ------- 0 2.1 1073741825.1 0 1
r 0.0712 0 1 cbr 210 ------- 0 0.1 1073741824.0 1 2
+ 0.0712 1 4 cbr 210 ------- 0 0.1 1073741824.0 1 2
+ 0.0712 1 2 cbr 210 ------- 0 0.1 1073741824.0 1 2
+ 0.0712 1 3 cbr 210 ------- 0 0.1 1073741824.0 1 2
r 0.0712 2 1 cbr 210 ------- 0 2.1 1073741825.1 1 3
+ 0.0712 1 4 cbr 210 ------- 0 2.1 1073741825.1 1 3
+ 0.0712 1 0 cbr 210 ------- 0 2.1 1073741825.1 1 3
+ 0.0712 1 3 cbr 210 ------- 0 2.1 1073741825.1 1 3
- 0.0712 1 4 cbr 210 ------- 0 2.1 1073741825.1 0 1
- 0.0712 1 2 cbr 210 ------- 0 0.1 1073741824.0 1 2
- 0.0712 1 0 cbr 210 ------- 0 2.1 1073741825.1 1 3
- 0.07232 1 3 cbr 210 ------- 0 0.1 1073741824.0 1 2
- 0.0724 0 1 cbr 210 ------- 0 0.1 1073741824.0 4 8
- 0.0724 2 1 cbr 210 ------- 0 2.1 1073741825.1 4 9
+ 0.0725 0 1 cbr 210 ------- 0 0.1 1073741824.0 6 12
+ 0.0725 2 1 cbr 210 ------- 0 2.1 1073741825.1 6 13
- 0.07568 1 3 cbr 210 ------- 0 2.1 1073741825.1 1 3
+ 0.07625 0 1 cbr 210 ------- 0 0.1 1073741824.0 7 14
+ 0.07625 2 1 cbr 210 ------- 0 2.1 1073741825.1 7 15
- 0.0768 1 4 cbr 210 ------- 0 0.1 1073741824.0 1 2
r 0.0768 0 1 cbr 210 ------- 0 0.1 1073741824.0 2 4
+ 0.0768 1 4 cbr 210 ------- 0 0.1 1073741824.0 2 4
+ 0.0768 1 2 cbr 210 ------- 0 0.1 1073741824.0 2 4
- 0.0768 1 2 cbr 210 ------- 0 0.1 1073741824.0 2 4
+ 0.0768 1 3 cbr 210 ------- 0 0.1 1073741824.0 2 4
r 0.0768 2 1 cbr 210 ------- 0 2.1 1073741825.1 2 5
+ 0.0768 1 4 cbr 210 ------- 0 2.1 1073741825.1 2 5
+ 0.0768 1 0 cbr 210 ------- 0 2.1 1073741825.1 2 5
- 0.0768 1 0 cbr 210 ------- 0 2.1 1073741825.1 2 5
+ 0.0768 1 3 cbr 210 ------- 0 2.1 1073741825.1 2 5
- 0.078 0 1 cbr 210 ------- 0 0.1 1073741824.0 5 10
- 0.078 2 1 cbr 210 ------- 0 2.1 1073741825.1 5 11
r 0.07896 1 3 cbr 210 ------- 0 0.1 1073741824.0 0 0
+ 0.07896 3 1 prune 80 ------- 30 3.0 1.0 -1 16
- 0.07896 3 1 prune 80 ------- 30 3.0 1.0 -1 16
- 0.07904 1 3 cbr 210 ------- 0 0.1 1073741824.0 2 4
+ 0.08 0 1 cbr 210 ------- 0 0.1 1073741824.0 8 17
+ 0.08 2 1 cbr 210 ------- 0 2.1 1073741825.1 8 18
r 0.0812 1 4 cbr 210 ------- 0 0.1 1073741824.0 0 0
+ 0.0812 4 1 prune 80 ------- 30 4.0 1.0 -1 19
- 0.0812 4 1 prune 80 ------- 30 4.0 1.0 -1 19
r 0.0812 1 2 cbr 210 ------- 0 0.1 1073741824.0 0 0
+ 0.0812 2 1 prune 80 ------- 30 2.0 1.0 -1 20
r 0.0812 1 0 cbr 210 ------- 0 2.1 1073741825.1 0 1
+ 0.0812 0 1 prune 80 ------- 30 0.0 1.0 -1 21
r 0.08232 1 3 cbr 210 ------- 0 2.1 1073741825.1 0 1
+ 0.08232 3 1 prune 80 ------- 30 3.0 1.0 -1 22
- 0.08232 3 1 prune 80 ------- 30 3.0 1.0 -1 22
- 0.0824 1 4 cbr 210 ------- 0 2.1 1073741825.1 1 3
r 0.0824 0 1 cbr 210 ------- 0 0.1 1073741824.0 3 6
+ 0.0824 1 4 cbr 210 ------- 0 0.1 1073741824.0 3 6
+ 0.0824 1 2 cbr 210 ------- 0 0.1 1073741824.0 3 6
+ 0.0824 1 3 cbr 210 ------- 0 0.1 1073741824.0 3 6
r 0.0824 2 1 cbr 210 ------- 0 2.1 1073741825.1 3 7
+ 0.0824 1 4 cbr 210 ------- 0 2.1 1073741825.1 3 7
+ 0.0824 1 0 cbr 210 ------- 0 2.1 1073741825.1 3 7
+ 0.0824 1 3 cbr 210 ------- 0 2.1 1073741825.1 3 7
- 0.0824 1 2 cbr 210 ------- 0 0.1 1073741824.0 3 6
- 0.0824 1 0 cbr 210 ------- 0 2.1 1073741825.1 3 7
- 0.0824 1 3 cbr 210 ------- 0 2.1 1073741825.1 2 5
- 0.0836 0 1 cbr 210 ------- 0 0.1 1073741824.0 6 12
- 0.0836 2 1 cbr 210 ------- 0 2.1 1073741825.1 6 13
+ 0.08375 0 1 cbr 210 ------- 0 0.1 1073741824.0 9 23
+ 0.08375 2 1 cbr 210 ------- 0 2.1 1073741825.1 9 24
r 0.08568 1 3 cbr 210 ------- 0 0.1 1073741824.0 1 2
+ 0.08568 3 1 prune 80 ------- 30 3.0 1.0 -1 25
- 0.08568 3 1 prune 80 ------- 30 3.0 1.0 -1 25
- 0.08576 1 3 cbr 210 ------- 0 0.1 1073741824.0 3 6
r 0.0868 1 4 cbr 210 ------- 0 2.1 1073741825.1 0 1
+ 0.0868 4 1 prune 80 ------- 30 4.0 1.0 -1 26
- 0.0868 4 1 prune 80 ------- 30 4.0 1.0 -1 26
r 0.0868 1 2 cbr 210 ------- 0 0.1 1073741824.0 1 2
+ 0.0868 2 1 prune 80 ------- 30 2.0 1.0 -1 27
r 0.0868 1 0 cbr 210 ------- 0 2.1 1073741825.1 1 3
+ 0.0868 0 1 prune 80 ------- 30 0.0 1.0 -1 28
+ 0.0875 0 1 cbr 210 ------- 0 0.1 1073741824.0 10 29
+ 0.0875 2 1 cbr 210 ------- 0 2.1 1073741825.1 10 30
- 0.088 1 4 cbr 210 ------- 0 0.1 1073741824.0 2 4
r 0.088 0 1 cbr 210 ------- 0 0.1 1073741824.0 4 8
+ 0.088 1 4 cbr 210 ------- 0 0.1 1073741824.0 4 8
+ 0.088 1 2 cbr 210 ------- 0 0.1 1073741824.0 4 8
+ 0.088 1 3 cbr 210 ------- 0 0.1 1073741824.0 4 8
r 0.088 2 1 cbr 210 ------- 0 2.1 1073741825.1 4 9
+ 0.088 1 4 cbr 210 ------- 0 2.1 1073741825.1 4 9
+ 0.088 1 0 cbr 210 ------- 0 2.1 1073741825.1 4 9
+ 0.088 1 3 cbr 210 ------- 0 2.1 1073741825.1 4 9
- 0.088 1 2 cbr 210 ------- 0 0.1 1073741824.0 4 8
- 0.088 1 0 cbr 210 ------- 0 2.1 1073741825.1 4 9
r 0.08904 1 3 cbr 210 ------- 0 2.1 1073741825.1 1 3
+ 0.08904 3 1 prune 80 ------- 30 3.0 1.0 -1 31
- 0.08904 3 1 prune 80 ------- 30 3.0 1.0 -1 31
- 0.08912 1 3 cbr 210 ------- 0 2.1 1073741825.1 3 7
- 0.0892 0 1 cbr 210 ------- 0 0.1 1073741824.0 7 14
- 0.0892 2 1 cbr 210 ------- 0 2.1 1073741825.1 7 15
r 0.09024 3 1 prune 80 ------- 30 3.0 1.0 -1 16
+ 0.09125 0 1 cbr 210 ------- 0 0.1 1073741824.0 11 32
+ 0.09125 2 1 cbr 210 ------- 0 2.1 1073741825.1 11 33
r 0.0924 1 4 cbr 210 ------- 0 0.1 1073741824.0 1 2
+ 0.0924 4 1 prune 80 ------- 30 4.0 1.0 -1 34
- 0.0924 4 1 prune 80 ------- 30 4.0 1.0 -1 34
r 0.0924 1 2 cbr 210 ------- 0 0.1 1073741824.0 2 4
+ 0.0924 2 1 prune 80 ------- 30 2.0 1.0 -1 35
r 0.0924 1 0 cbr 210 ------- 0 2.1 1073741825.1 2 5
+ 0.0924 0 1 prune 80 ------- 30 0.0 1.0 -1 36
r 0.0924 1 3 cbr 210 ------- 0 0.1 1073741824.0 2 4
+ 0.0924 3 1 prune 80 ------- 30 3.0 1.0 -1 37
- 0.0924 3 1 prune 80 ------- 30 3.0 1.0 -1 37
- 0.09248 1 3 cbr 210 ------- 0 0.1 1073741824.0 4 8
r 0.093333 4 1 prune 80 ------- 30 4.0 1.0 -1 19
- 0.0936 1 4 cbr 210 ------- 0 2.1 1073741825.1 2 5
r 0.0936 0 1 cbr 210 ------- 0 0.1 1073741824.0 5 10
+ 0.0936 1 2 cbr 210 ------- 0 0.1 1073741824.0 5 10
r 0.0936 2 1 cbr 210 ------- 0 2.1 1073741825.1 5 11
+ 0.0936 1 4 cbr 210 ------- 0 2.1 1073741825.1 5 11
+ 0.0936 1 0 cbr 210 ------- 0 2.1 1073741825.1 5 11
+ 0.0936 1 3 cbr 210 ------- 0 2.1 1073741825.1 5 11
- 0.0936 1 2 cbr 210 ------- 0 0.1 1073741824.0 5 10
- 0.0936 1 0 cbr 210 ------- 0 2.1 1073741825.1 5 11
r 0.0936 3 1 prune 80 ------- 30 3.0 1.0 -1 22
- 0.0948 0 1 cbr 210 ------- 0 0.1 1073741824.0 8 17
- 0.0948 2 1 cbr 210 ------- 0 2.1 1073741825.1 8 18
+ 0.095 0 1 cbr 210 ------- 0 0.1 1073741824.0 12 38
+ 0.095 2 1 cbr 210 ------- 0 2.1 1073741825.1 12 39
r 0.09576 1 3 cbr 210 ------- 0 2.1 1073741825.1 2 5
+ 0.09576 3 1 prune 80 ------- 30 3.0 1.0 -1 40
- 0.09576 3 1 prune 80 ------- 30 3.0 1.0 -1 40
- 0.09584 1 3 cbr 210 ------- 0 2.1 1073741825.1 4 9
r 0.09696 3 1 prune 80 ------- 30 3.0 1.0 -1 25
r 0.098 1 4 cbr 210 ------- 0 2.1 1073741825.1 1 3
+ 0.098 4 1 prune 80 ------- 30 4.0 1.0 -1 41
- 0.098 4 1 prune 80 ------- 30 4.0 1.0 -1 41
r 0.098 1 2 cbr 210 ------- 0 0.1 1073741824.0 3 6
+ 0.098 2 1 prune 80 ------- 30 2.0 1.0 -1 42
r 0.098 1 0 cbr 210 ------- 0 2.1 1073741825.1 3 7
+ 0.098 0 1 prune 80 ------- 30 0.0 1.0 -1 43
+ 0.09875 0 1 cbr 210 ------- 0 0.1 1073741824.0 13 44
+ 0.09875 2 1 cbr 210 ------- 0 2.1 1073741825.1 13 45
r 0.098933 4 1 prune 80 ------- 30 4.0 1.0 -1 26
r 0.09912 1 3 cbr 210 ------- 0 0.1 1073741824.0 3 6
+ 0.09912 3 1 prune 80 ------- 30 3.0 1.0 -1 46
- 0.09912 3 1 prune 80 ------- 30 3.0 1.0 -1 46
- 0.0992 1 4 cbr 210 ------- 0 0.1 1073741824.0 3 6
r 0.0992 0 1 cbr 210 ------- 0 0.1 1073741824.0 6 12
+ 0.0992 1 2 cbr 210 ------- 0 0.1 1073741824.0 6 12
r 0.0992 2 1 cbr 210 ------- 0 2.1 1073741825.1 6 13
+ 0.0992 1 0 cbr 210 ------- 0 2.1 1073741825.1 6 13
- 0.0992 1 2 cbr 210 ------- 0 0.1 1073741824.0 6 12
- 0.0992 1 0 cbr 210 ------- 0 2.1 1073741825.1 6 13
- 0.0992 1 3 cbr 210 ------- 0 2.1 1073741825.1 5 11
v 0.1 eval {set sim_annotation {0.10000000000000001 3 join-group 1073741824}}
+ 0.1 3 1 graft 80 ------- 31 3.0 1.0 -1 47
r 0.10032 3 1 prune 80 ------- 30 3.0 1.0 -1 31
- 0.1004 0 1 prune 80 ------- 30 0.0 1.0 -1 21
- 0.1004 2 1 prune 80 ------- 30 2.0 1.0 -1 20
- 0.1004 3 1 graft 80 ------- 31 3.0 1.0 -1 47
r 0.10248 1 3 cbr 210 ------- 0 2.1 1073741825.1 3 7
+ 0.10248 3 1 prune 80 ------- 30 3.0 1.0 -1 48
- 0.10248 3 1 prune 80 ------- 30 3.0 1.0 -1 48
+ 0.1025 0 1 cbr 210 ------- 0 0.1 1073741824.0 14 49
+ 0.1025 2 1 cbr 210 ------- 0 2.1 1073741825.1 14 50
- 0.102533 0 1 cbr 210 ------- 0 0.1 1073741824.0 9 23
- 0.102533 2 1 cbr 210 ------- 0 2.1 1073741825.1 9 24
r 0.1036 1 4 cbr 210 ------- 0 0.1 1073741824.0 2 4
+ 0.1036 4 1 prune 80 ------- 30 4.0 1.0 -1 51
- 0.1036 4 1 prune 80 ------- 30 4.0 1.0 -1 51
r 0.1036 1 2 cbr 210 ------- 0 0.1 1073741824.0 4 8
+ 0.1036 2 1 prune 80 ------- 30 2.0 1.0 -1 52
r 0.1036 1 0 cbr 210 ------- 0 2.1 1073741825.1 4 9
+ 0.1036 0 1 prune 80 ------- 30 0.0 1.0 -1 53
r 0.10368 3 1 prune 80 ------- 30 3.0 1.0 -1 37
r 0.104533 4 1 prune 80 ------- 30 4.0 1.0 -1 34
- 0.1048 1 4 cbr 210 ------- 0 2.1 1073741825.1 3 7
r 0.1048 0 1 cbr 210 ------- 0 0.1 1073741824.0 7 14
+ 0.1048 1 2 cbr 210 ------- 0 0.1 1073741824.0 7 14
r 0.1048 2 1 cbr 210 ------- 0 2.1 1073741825.1 7 15
+ 0.1048 1 0 cbr 210 ------- 0 2.1 1073741825.1 7 15
- 0.1048 1 2 cbr 210 ------- 0 0.1 1073741824.0 7 14
- 0.1048 1 0 cbr 210 ------- 0 2.1 1073741825.1 7 15
r 0.10584 1 3 cbr 210 ------- 0 0.1 1073741824.0 4 8
+ 0.10625 0 1 cbr 210 ------- 0 0.1 1073741824.0 15 54
+ 0.10625 2 1 cbr 210 ------- 0 2.1 1073741825.1 15 55
r 0.10704 3 1 prune 80 ------- 30 3.0 1.0 -1 40
- 0.108133 0 1 prune 80 ------- 30 0.0 1.0 -1 28
- 0.108133 2 1 prune 80 ------- 30 2.0 1.0 -1 27
r 0.1092 1 4 cbr 210 ------- 0 2.1 1073741825.1 2 5
+ 0.1092 4 1 prune 80 ------- 30 4.0 1.0 -1 56
- 0.1092 4 1 prune 80 ------- 30 4.0 1.0 -1 56
r 0.1092 1 2 cbr 210 ------- 0 0.1 1073741824.0 5 10
+ 0.1092 2 1 prune 80 ------- 30 2.0 1.0 -1 57
r 0.1092 1 0 cbr 210 ------- 0 2.1 1073741825.1 5 11
+ 0.1092 0 1 prune 80 ------- 30 0.0 1.0 -1 58
r 0.1092 1 3 cbr 210 ------- 0 2.1 1073741825.1 4 9
+ 0.1092 3 1 prune 80 ------- 30 3.0 1.0 -1 59
- 0.1092 3 1 prune 80 ------- 30 3.0 1.0 -1 59
+ 0.11 0 1 cbr 210 ------- 0 0.1 1073741824.0 16 60
+ 0.11 2 1 cbr 210 ------- 0 2.1 1073741825.1 16 61
r 0.110133 4 1 prune 80 ------- 30 4.0 1.0 -1 41
- 0.110267 0 1 cbr 210 ------- 0 0.1 1073741824.0 10 29
- 0.110267 2 1 cbr 210 ------- 0 2.1 1073741825.1 10 30
- 0.1104 1 4 cbr 210 ------- 0 0.1 1073741824.0 4 8
r 0.1104 0 1 cbr 210 ------- 0 0.1 1073741824.0 8 17
+ 0.1104 1 2 cbr 210 ------- 0 0.1 1073741824.0 8 17
r 0.1104 2 1 cbr 210 ------- 0 2.1 1073741825.1 8 18
+ 0.1104 1 0 cbr 210 ------- 0 2.1 1073741825.1 8 18
- 0.1104 1 2 cbr 210 ------- 0 0.1 1073741824.0 8 17
- 0.1104 1 0 cbr 210 ------- 0 2.1 1073741825.1 8 18
r 0.1104 3 1 prune 80 ------- 30 3.0 1.0 -1 46
r 0.11168 3 1 graft 80 ------- 31 3.0 1.0 -1 47
r 0.112533 0 1 prune 80 ------- 30 0.0 1.0 -1 21
+ 0.112533 1 2 prune 80 ------- 30 1.0 2.0 -1 62
r 0.112533 2 1 prune 80 ------- 30 2.0 1.0 -1 20
r 0.11256 1 3 cbr 210 ------- 0 2.1 1073741825.1 5 11
+ 0.11256 3 1 prune 80 ------- 30 3.0 1.0 -1 63
- 0.11256 3 1 prune 80 ------- 30 3.0 1.0 -1 63
+ 0.11375 0 1 cbr 210 ------- 0 0.1 1073741824.0 17 64
+ 0.11375 2 1 cbr 210 ------- 0 2.1 1073741825.1 17 65
r 0.11376 3 1 prune 80 ------- 30 3.0 1.0 -1 48
r 0.1148 1 4 cbr 210 ------- 0 0.1 1073741824.0 3 6
+ 0.1148 4 1 prune 80 ------- 30 4.0 1.0 -1 66
- 0.1148 4 1 prune 80 ------- 30 4.0 1.0 -1 66
r 0.1148 1 2 cbr 210 ------- 0 0.1 1073741824.0 6 12
+ 0.1148 2 1 prune 80 ------- 30 2.0 1.0 -1 67
r 0.1148 1 0 cbr 210 ------- 0 2.1 1073741825.1 6 13
+ 0.1148 0 1 prune 80 ------- 30 0.0 1.0 -1 68
r 0.115733 4 1 prune 80 ------- 30 4.0 1.0 -1 51
- 0.115867 0 1 cbr 210 ------- 0 0.1 1073741824.0 11 32
- 0.115867 2 1 cbr 210 ------- 0 2.1 1073741825.1 11 33
- 0.116 1 4 cbr 210 ------- 0 2.1 1073741825.1 4 9
- 0.116 1 2 prune 80 ------- 30 1.0 2.0 -1 62
+ 0.1175 0 1 cbr 210 ------- 0 0.1 1073741824.0 18 69
+ 0.1175 2 1 cbr 210 ------- 0 2.1 1073741825.1 18 70
r 0.118133 0 1 cbr 210 ------- 0 0.1 1073741824.0 9 23
+ 0.118133 1 3 cbr 210 ------- 0 0.1 1073741824.0 9 23
- 0.118133 1 3 cbr 210 ------- 0 0.1 1073741824.0 9 23
r 0.118133 2 1 cbr 210 ------- 0 2.1 1073741825.1 9 24
+ 0.118133 1 2 prune 80 ------- 30 1.0 2.0 -1 71
- 0.118133 1 2 prune 80 ------- 30 1.0 2.0 -1 71
v 0.12 eval {set sim_annotation {0.12 4 join-group 1073741824}}
+ 0.12 4 1 graft 80 ------- 31 4.0 1.0 -1 72
- 0.12 4 1 graft 80 ------- 31 4.0 1.0 -1 72
r 0.120267 0 1 prune 80 ------- 30 0.0 1.0 -1 28
r 0.120267 2 1 prune 80 ------- 30 2.0 1.0 -1 27
r 0.1204 1 4 cbr 210 ------- 0 2.1 1073741825.1 3 7
+ 0.1204 4 1 prune 80 ------- 30 4.0 1.0 -1 73
r 0.1204 1 2 cbr 210 ------- 0 0.1 1073741824.0 7 14
+ 0.1204 2 1 prune 80 ------- 30 2.0 1.0 -1 74
r 0.1204 1 0 cbr 210 ------- 0 2.1 1073741825.1 7 15
+ 0.1204 0 1 prune 80 ------- 30 0.0 1.0 -1 75
r 0.12048 3 1 prune 80 ------- 30 3.0 1.0 -1 59
+ 0.12125 0 1 cbr 210 ------- 0 0.1 1073741824.0 19 76
+ 0.12125 2 1 cbr 210 ------- 0 2.1 1073741825.1 19 77
r 0.121333 4 1 prune 80 ------- 30 4.0 1.0 -1 56
- 0.121467 0 1 prune 80 ------- 30 0.0 1.0 -1 36
- 0.121467 2 1 prune 80 ------- 30 2.0 1.0 -1 35
- 0.1216 1 4 cbr 210 ------- 0 2.1 1073741825.1 5 11
- 0.122133 4 1 prune 80 ------- 30 4.0 1.0 -1 73
- 0.1236 0 1 cbr 210 ------- 0 0.1 1073741824.0 12 38
- 0.1236 2 1 cbr 210 ------- 0 2.1 1073741825.1 12 39
r 0.12384 3 1 prune 80 ------- 30 3.0 1.0 -1 63
+ 0.125 0 1 cbr 210 ------- 0 0.1 1073741824.0 20 78
+ 0.125 2 1 cbr 210 ------- 0 2.1 1073741825.1 20 79
r 0.125867 0 1 cbr 210 ------- 0 0.1 1073741824.0 10 29
+ 0.125867 1 3 cbr 210 ------- 0 0.1 1073741824.0 10 29
- 0.125867 1 3 cbr 210 ------- 0 0.1 1073741824.0 10 29
r 0.125867 2 1 cbr 210 ------- 0 2.1 1073741825.1 10 30
+ 0.125867 1 2 prune 80 ------- 30 1.0 2.0 -1 80
- 0.125867 1 2 prune 80 ------- 30 1.0 2.0 -1 80
r 0.126 1 4 cbr 210 ------- 0 0.1 1073741824.0 4 8
r 0.126 1 2 cbr 210 ------- 0 0.1 1073741824.0 8 17
+ 0.126 2 1 prune 80 ------- 30 2.0 1.0 -1 81
r 0.126 1 0 cbr 210 ------- 0 2.1 1073741825.1 8 18
+ 0.126 0 1 prune 80 ------- 30 0.0 1.0 -1 82
r 0.126933 4 1 prune 80 ------- 30 4.0 1.0 -1 66
r 0.128133 1 2 prune 80 ------- 30 1.0 2.0 -1 62
+ 0.12875 0 1 cbr 210 ------- 0 0.1 1073741824.0 21 83
- 0.1292 0 1 prune 80 ------- 30 0.0 1.0 -1 43
- 0.1292 2 1 prune 80 ------- 30 2.0 1.0 -1 42
r 0.130267 1 2 prune 80 ------- 30 1.0 2.0 -1 71
- 0.131333 0 1 cbr 210 ------- 0 0.1 1073741824.0 13 44
- 0.131333 2 1 cbr 210 ------- 0 2.1 1073741825.1 13 45
r 0.131467 0 1 cbr 210 ------- 0 0.1 1073741824.0 11 32
+ 0.131467 1 3 cbr 210 ------- 0 0.1 1073741824.0 11 32
- 0.131467 1 3 cbr 210 ------- 0 0.1 1073741824.0 11 32
r 0.131467 2 1 cbr 210 ------- 0 2.1 1073741825.1 11 33
+ 0.131467 1 2 prune 80 ------- 30 1.0 2.0 -1 85
- 0.131467 1 2 prune 80 ------- 30 1.0 2.0 -1 85
r 0.131493 1 3 cbr 210 ------- 0 0.1 1073741824.0 9 23
r 0.1316 1 4 cbr 210 ------- 0 2.1 1073741825.1 4 9
+ 0.1316 4 1 prune 80 ------- 30 4.0 1.0 -1 86
- 0.1316 4 1 prune 80 ------- 30 4.0 1.0 -1 86
r 0.132133 4 1 graft 80 ------- 31 4.0 1.0 -1 72
+ 0.1325 0 1 cbr 210 ------- 0 0.1 1073741824.0 22 87
r 0.1336 0 1 prune 80 ------- 30 0.0 1.0 -1 36
r 0.1336 2 1 prune 80 ------- 30 2.0 1.0 -1 35
r 0.134267 4 1 prune 80 ------- 30 4.0 1.0 -1 73
+ 0.13625 0 1 cbr 210 ------- 0 0.1 1073741824.0 23 89
- 0.136933 0 1 cbr 210 ------- 0 0.1 1073741824.0 14 49
- 0.136933 2 1 cbr 210 ------- 0 2.1 1073741825.1 14 50
r 0.1372 1 4 cbr 210 ------- 0 2.1 1073741825.1 5 11
+ 0.1372 4 1 prune 80 ------- 30 4.0 1.0 -1 91
- 0.1372 4 1 prune 80 ------- 30 4.0 1.0 -1 91
r 0.138 1 2 prune 80 ------- 30 1.0 2.0 -1 80
r 0.1392 0 1 cbr 210 ------- 0 0.1 1073741824.0 12 38
+ 0.1392 1 3 cbr 210 ------- 0 0.1 1073741824.0 12 38
- 0.1392 1 3 cbr 210 ------- 0 0.1 1073741824.0 12 38
+ 0.1392 1 4 cbr 210 ------- 0 0.1 1073741824.0 12 38
- 0.1392 1 4 cbr 210 ------- 0 0.1 1073741824.0 12 38
r 0.1392 2 1 cbr 210 ------- 0 2.1 1073741825.1 12 39
+ 0.1392 1 2 prune 80 ------- 30 1.0 2.0 -1 92
- 0.1392 1 2 prune 80 ------- 30 1.0 2.0 -1 92
r 0.139227 1 3 cbr 210 ------- 0 0.1 1073741824.0 10 29
+ 0.14 0 1 cbr 210 ------- 0 0.1 1073741824.0 24 93
r 0.141333 0 1 prune 80 ------- 30 0.0 1.0 -1 43
r 0.141333 2 1 prune 80 ------- 30 2.0 1.0 -1 42
- 0.142533 0 1 prune 80 ------- 30 0.0 1.0 -1 53
- 0.142533 2 1 prune 80 ------- 30 2.0 1.0 -1 52
r 0.1436 1 2 prune 80 ------- 30 1.0 2.0 -1 85
r 0.143733 4 1 prune 80 ------- 30 4.0 1.0 -1 86
+ 0.14375 0 1 cbr 210 ------- 0 0.1 1073741824.0 25 95
- 0.144667 0 1 cbr 210 ------- 0 0.1 1073741824.0 15 54
- 0.144667 2 1 cbr 210 ------- 0 2.1 1073741825.1 15 55
r 0.144827 1 3 cbr 210 ------- 0 0.1 1073741824.0 11 32
r 0.146933 0 1 cbr 210 ------- 0 0.1 1073741824.0 13 44
+ 0.146933 1 3 cbr 210 ------- 0 0.1 1073741824.0 13 44
- 0.146933 1 3 cbr 210 ------- 0 0.1 1073741824.0 13 44
+ 0.146933 1 4 cbr 210 ------- 0 0.1 1073741824.0 13 44
- 0.146933 1 4 cbr 210 ------- 0 0.1 1073741824.0 13 44
r 0.146933 2 1 cbr 210 ------- 0 2.1 1073741825.1 13 45
+ 0.146933 1 2 prune 80 ------- 30 1.0 2.0 -1 97
- 0.146933 1 2 prune 80 ------- 30 1.0 2.0 -1 97
+ 0.1475 0 1 cbr 210 ------- 0 0.1 1073741824.0 26 98
r 0.149333 4 1 prune 80 ------- 30 4.0 1.0 -1 91
- 0.150267 0 1 prune 80 ------- 30 0.0 1.0 -1 58
- 0.150267 2 1 prune 80 ------- 30 2.0 1.0 -1 57
+ 0.15125 0 1 cbr 210 ------- 0 0.1 1073741824.0 27 100
r 0.151333 1 2 prune 80 ------- 30 1.0 2.0 -1 92
- 0.1524 0 1 cbr 210 ------- 0 0.1 1073741824.0 16 60
- 0.1524 2 1 cbr 210 ------- 0 2.1 1073741825.1 16 61
r 0.152533 0 1 cbr 210 ------- 0 0.1 1073741824.0 14 49
+ 0.152533 1 3 cbr 210 ------- 0 0.1 1073741824.0 14 49
- 0.152533 1 3 cbr 210 ------- 0 0.1 1073741824.0 14 49
+ 0.152533 1 4 cbr 210 ------- 0 0.1 1073741824.0 14 49
r 0.152533 2 1 cbr 210 ------- 0 2.1 1073741825.1 14 50
+ 0.152533 1 2 prune 80 ------- 30 1.0 2.0 -1 102
- 0.152533 1 2 prune 80 ------- 30 1.0 2.0 -1 102
- 0.152533 1 4 cbr 210 ------- 0 0.1 1073741824.0 14 49
r 0.15256 1 3 cbr 210 ------- 0 0.1 1073741824.0 12 38
r 0.154667 0 1 prune 80 ------- 30 0.0 1.0 -1 53
r 0.154667 2 1 prune 80 ------- 30 2.0 1.0 -1 52
r 0.1548 1 4 cbr 210 ------- 0 0.1 1073741824.0 12 38
+ 0.155 0 1 cbr 210 ------- 0 0.1 1073741824.0 28 103
- 0.158 0 1 cbr 210 ------- 0 0.1 1073741824.0 17 64
- 0.158 2 1 cbr 210 ------- 0 2.1 1073741825.1 17 65
+ 0.15875 0 1 cbr 210 ------- 0 0.1 1073741824.0 29 105
r 0.159067 1 2 prune 80 ------- 30 1.0 2.0 -1 97
r 0.160267 0 1 cbr 210 ------- 0 0.1 1073741824.0 15 54
+ 0.160267 1 3 cbr 210 ------- 0 0.1 1073741824.0 15 54
- 0.160267 1 3 cbr 210 ------- 0 0.1 1073741824.0 15 54
+ 0.160267 1 4 cbr 210 ------- 0 0.1 1073741824.0 15 54
- 0.160267 1 4 cbr 210 ------- 0 0.1 1073741824.0 15 54
r 0.160267 2 1 cbr 210 ------- 0 2.1 1073741825.1 15 55
+ 0.160267 1 2 prune 80 ------- 30 1.0 2.0 -1 107
- 0.160267 1 2 prune 80 ------- 30 1.0 2.0 -1 107
r 0.160293 1 3 cbr 210 ------- 0 0.1 1073741824.0 13 44
r 0.1624 0 1 prune 80 ------- 30 0.0 1.0 -1 58
r 0.1624 2 1 prune 80 ------- 30 2.0 1.0 -1 57
+ 0.1625 0 1 cbr 210 ------- 0 0.1 1073741824.0 30 108
r 0.162533 1 4 cbr 210 ------- 0 0.1 1073741824.0 13 44
- 0.1636 0 1 prune 80 ------- 30 0.0 1.0 -1 68
- 0.1636 2 1 prune 80 ------- 30 2.0 1.0 -1 67
r 0.164667 1 2 prune 80 ------- 30 1.0 2.0 -1 102
- 0.165733 0 1 cbr 210 ------- 0 0.1 1073741824.0 18 69
- 0.165733 2 1 cbr 210 ------- 0 2.1 1073741825.1 18 70
r 0.165893 1 3 cbr 210 ------- 0 0.1 1073741824.0 14 49
+ 0.16625 0 1 cbr 210 ------- 0 0.1 1073741824.0 31 110
r 0.168 0 1 cbr 210 ------- 0 0.1 1073741824.0 16 60
+ 0.168 1 3 cbr 210 ------- 0 0.1 1073741824.0 16 60
- 0.168 1 3 cbr 210 ------- 0 0.1 1073741824.0 16 60
+ 0.168 1 4 cbr 210 ------- 0 0.1 1073741824.0 16 60
- 0.168 1 4 cbr 210 ------- 0 0.1 1073741824.0 16 60
r 0.168 2 1 cbr 210 ------- 0 2.1 1073741825.1 16 61
+ 0.168 1 2 prune 80 ------- 30 1.0 2.0 -1 112
- 0.168 1 2 prune 80 ------- 30 1.0 2.0 -1 112
r 0.168133 1 4 cbr 210 ------- 0 0.1 1073741824.0 14 49
+ 0.17 0 1 cbr 210 ------- 0 0.1 1073741824.0 32 113
- 0.171333 0 1 prune 80 ------- 30 0.0 1.0 -1 75
- 0.171333 2 1 prune 80 ------- 30 2.0 1.0 -1 74
r 0.1724 1 2 prune 80 ------- 30 1.0 2.0 -1 107
- 0.173467 0 1 cbr 210 ------- 0 0.1 1073741824.0 19 76
- 0.173467 2 1 cbr 210 ------- 0 2.1 1073741825.1 19 77
r 0.1736 0 1 cbr 210 ------- 0 0.1 1073741824.0 17 64
+ 0.1736 1 3 cbr 210 ------- 0 0.1 1073741824.0 17 64
- 0.1736 1 3 cbr 210 ------- 0 0.1 1073741824.0 17 64
+ 0.1736 1 4 cbr 210 ------- 0 0.1 1073741824.0 17 64
r 0.1736 2 1 cbr 210 ------- 0 2.1 1073741825.1 17 65
+ 0.1736 1 2 prune 80 ------- 30 1.0 2.0 -1 115
- 0.1736 1 2 prune 80 ------- 30 1.0 2.0 -1 115
- 0.1736 1 4 cbr 210 ------- 0 0.1 1073741824.0 17 64
r 0.173627 1 3 cbr 210 ------- 0 0.1 1073741824.0 15 54
+ 0.17375 0 1 cbr 210 ------- 0 0.1 1073741824.0 33 116
r 0.175733 0 1 prune 80 ------- 30 0.0 1.0 -1 68
r 0.175733 2 1 prune 80 ------- 30 2.0 1.0 -1 67
r 0.175867 1 4 cbr 210 ------- 0 0.1 1073741824.0 15 54
+ 0.1775 0 1 cbr 210 ------- 0 0.1 1073741824.0 34 118
- 0.179067 0 1 cbr 210 ------- 0 0.1 1073741824.0 20 78
- 0.179067 2 1 cbr 210 ------- 0 2.1 1073741825.1 20 79
r 0.180133 1 2 prune 80 ------- 30 1.0 2.0 -1 112
+ 0.18125 0 1 cbr 210 ------- 0 0.1 1073741824.0 35 120
r 0.181333 0 1 cbr 210 ------- 0 0.1 1073741824.0 18 69
+ 0.181333 1 3 cbr 210 ------- 0 0.1 1073741824.0 18 69
- 0.181333 1 3 cbr 210 ------- 0 0.1 1073741824.0 18 69
+ 0.181333 1 4 cbr 210 ------- 0 0.1 1073741824.0 18 69
- 0.181333 1 4 cbr 210 ------- 0 0.1 1073741824.0 18 69
r 0.181333 2 1 cbr 210 ------- 0 2.1 1073741825.1 18 70
+ 0.181333 1 2 prune 80 ------- 30 1.0 2.0 -1 122
- 0.181333 1 2 prune 80 ------- 30 1.0 2.0 -1 122
r 0.18136 1 3 cbr 210 ------- 0 0.1 1073741824.0 16 60
r 0.183467 0 1 prune 80 ------- 30 0.0 1.0 -1 75
r 0.183467 2 1 prune 80 ------- 30 2.0 1.0 -1 74
r 0.1836 1 4 cbr 210 ------- 0 0.1 1073741824.0 16 60
- 0.184667 0 1 prune 80 ------- 30 0.0 1.0 -1 82
- 0.184667 2 1 prune 80 ------- 30 2.0 1.0 -1 81
+ 0.185 0 1 cbr 210 ------- 0 0.1 1073741824.0 36 123
r 0.185733 1 2 prune 80 ------- 30 1.0 2.0 -1 115
- 0.1868 0 1 cbr 210 ------- 0 0.1 1073741824.0 21 83
r 0.18696 1 3 cbr 210 ------- 0 0.1 1073741824.0 17 64
+ 0.18875 0 1 cbr 210 ------- 0 0.1 1073741824.0 37 125
r 0.189067 0 1 cbr 210 ------- 0 0.1 1073741824.0 19 76
+ 0.189067 1 3 cbr 210 ------- 0 0.1 1073741824.0 19 76
- 0.189067 1 3 cbr 210 ------- 0 0.1 1073741824.0 19 76
+ 0.189067 1 4 cbr 210 ------- 0 0.1 1073741824.0 19 76
- 0.189067 1 4 cbr 210 ------- 0 0.1 1073741824.0 19 76
r 0.189067 2 1 cbr 210 ------- 0 2.1 1073741825.1 19 77
+ 0.189067 1 2 prune 80 ------- 30 1.0 2.0 -1 127
- 0.189067 1 2 prune 80 ------- 30 1.0 2.0 -1 127
r 0.1892 1 4 cbr 210 ------- 0 0.1 1073741824.0 17 64
- 0.1924 0 1 cbr 210 ------- 0 0.1 1073741824.0 22 87
+ 0.1925 0 1 cbr 210 ------- 0 0.1 1073741824.0 38 128
r 0.193467 1 2 prune 80 ------- 30 1.0 2.0 -1 122
r 0.194667 0 1 cbr 210 ------- 0 0.1 1073741824.0 20 78
+ 0.194667 1 3 cbr 210 ------- 0 0.1 1073741824.0 20 78
- 0.194667 1 3 cbr 210 ------- 0 0.1 1073741824.0 20 78
+ 0.194667 1 4 cbr 210 ------- 0 0.1 1073741824.0 20 78
r 0.194667 2 1 cbr 210 ------- 0 2.1 1073741825.1 20 79
+ 0.194667 1 2 prune 80 ------- 30 1.0 2.0 -1 130
- 0.194667 1 2 prune 80 ------- 30 1.0 2.0 -1 130
- 0.194667 1 4 cbr 210 ------- 0 0.1 1073741824.0 20 78
r 0.194693 1 3 cbr 210 ------- 0 0.1 1073741824.0 18 69
+ 0.19625 0 1 cbr 210 ------- 0 0.1 1073741824.0 39 131
r 0.1968 0 1 prune 80 ------- 30 0.0 1.0 -1 82
r 0.1968 2 1 prune 80 ------- 30 2.0 1.0 -1 81
r 0.196933 1 4 cbr 210 ------- 0 0.1 1073741824.0 18 69
- 0.198 0 1 cbr 210 ------- 0 0.1 1073741824.0 23 89
+ 0.2 0 1 cbr 210 ------- 0 0.1 1073741824.0 40 133
r 0.2012 1 2 prune 80 ------- 30 1.0 2.0 -1 127
r 0.2024 0 1 cbr 210 ------- 0 0.1 1073741824.0 21 83
+ 0.2024 1 3 cbr 210 ------- 0 0.1 1073741824.0 21 83
- 0.2024 1 3 cbr 210 ------- 0 0.1 1073741824.0 21 83
+ 0.2024 1 4 cbr 210 ------- 0 0.1 1073741824.0 21 83
- 0.2024 1 4 cbr 210 ------- 0 0.1 1073741824.0 21 83
r 0.202427 1 3 cbr 210 ------- 0 0.1 1073741824.0 19 76
- 0.2036 0 1 cbr 210 ------- 0 0.1 1073741824.0 24 93
+ 0.20375 0 1 cbr 210 ------- 0 0.1 1073741824.0 41 135
r 0.204667 1 4 cbr 210 ------- 0 0.1 1073741824.0 19 76
r 0.2068 1 2 prune 80 ------- 30 1.0 2.0 -1 130
+ 0.2075 0 1 cbr 210 ------- 0 0.1 1073741824.0 42 137
r 0.208 0 1 cbr 210 ------- 0 0.1 1073741824.0 22 87
+ 0.208 1 3 cbr 210 ------- 0 0.1 1073741824.0 22 87
- 0.208 1 3 cbr 210 ------- 0 0.1 1073741824.0 22 87
+ 0.208 1 4 cbr 210 ------- 0 0.1 1073741824.0 22 87
- 0.208 1 4 cbr 210 ------- 0 0.1 1073741824.0 22 87
r 0.208027 1 3 cbr 210 ------- 0 0.1 1073741824.0 20 78
- 0.2092 0 1 cbr 210 ------- 0 0.1 1073741824.0 25 95
r 0.210267 1 4 cbr 210 ------- 0 0.1 1073741824.0 20 78
+ 0.21125 0 1 cbr 210 ------- 0 0.1 1073741824.0 43 139
r 0.2136 0 1 cbr 210 ------- 0 0.1 1073741824.0 23 89
+ 0.2136 1 3 cbr 210 ------- 0 0.1 1073741824.0 23 89
- 0.2136 1 3 cbr 210 ------- 0 0.1 1073741824.0 23 89
+ 0.2136 1 4 cbr 210 ------- 0 0.1 1073741824.0 23 89
- 0.2136 1 4 cbr 210 ------- 0 0.1 1073741824.0 23 89
- 0.2148 0 1 cbr 210 ------- 0 0.1 1073741824.0 26 98
+ 0.215 0 1 cbr 210 ------- 0 0.1 1073741824.0 44 141
r 0.21576 1 3 cbr 210 ------- 0 0.1 1073741824.0 21 83
r 0.218 1 4 cbr 210 ------- 0 0.1 1073741824.0 21 83
+ 0.21875 0 1 cbr 210 ------- 0 0.1 1073741824.0 45 143
r 0.2192 0 1 cbr 210 ------- 0 0.1 1073741824.0 24 93
+ 0.2192 1 3 cbr 210 ------- 0 0.1 1073741824.0 24 93
- 0.2192 1 3 cbr 210 ------- 0 0.1 1073741824.0 24 93
+ 0.2192 1 4 cbr 210 ------- 0 0.1 1073741824.0 24 93
- 0.2192 1 4 cbr 210 ------- 0 0.1 1073741824.0 24 93
- 0.2204 0 1 cbr 210 ------- 0 0.1 1073741824.0 27 100
r 0.22136 1 3 cbr 210 ------- 0 0.1 1073741824.0 22 87
+ 0.2225 0 1 cbr 210 ------- 0 0.1 1073741824.0 46 145
r 0.2236 1 4 cbr 210 ------- 0 0.1 1073741824.0 22 87
r 0.2248 0 1 cbr 210 ------- 0 0.1 1073741824.0 25 95
+ 0.2248 1 3 cbr 210 ------- 0 0.1 1073741824.0 25 95
- 0.2248 1 3 cbr 210 ------- 0 0.1 1073741824.0 25 95
+ 0.2248 1 4 cbr 210 ------- 0 0.1 1073741824.0 25 95
- 0.2248 1 4 cbr 210 ------- 0 0.1 1073741824.0 25 95
- 0.226 0 1 cbr 210 ------- 0 0.1 1073741824.0 28 103
+ 0.22625 0 1 cbr 210 ------- 0 0.1 1073741824.0 47 147
r 0.22696 1 3 cbr 210 ------- 0 0.1 1073741824.0 23 89
r 0.2292 1 4 cbr 210 ------- 0 0.1 1073741824.0 23 89
+ 0.23 0 1 cbr 210 ------- 0 0.1 1073741824.0 48 149
r 0.2304 0 1 cbr 210 ------- 0 0.1 1073741824.0 26 98
+ 0.2304 1 3 cbr 210 ------- 0 0.1 1073741824.0 26 98
- 0.2304 1 3 cbr 210 ------- 0 0.1 1073741824.0 26 98
+ 0.2304 1 4 cbr 210 ------- 0 0.1 1073741824.0 26 98
- 0.2304 1 4 cbr 210 ------- 0 0.1 1073741824.0 26 98
- 0.2316 0 1 cbr 210 ------- 0 0.1 1073741824.0 29 105
r 0.23256 1 3 cbr 210 ------- 0 0.1 1073741824.0 24 93
+ 0.23375 0 1 cbr 210 ------- 0 0.1 1073741824.0 49 151
r 0.2348 1 4 cbr 210 ------- 0 0.1 1073741824.0 24 93
r 0.236 0 1 cbr 210 ------- 0 0.1 1073741824.0 27 100
+ 0.236 1 3 cbr 210 ------- 0 0.1 1073741824.0 27 100
- 0.236 1 3 cbr 210 ------- 0 0.1 1073741824.0 27 100
+ 0.236 1 4 cbr 210 ------- 0 0.1 1073741824.0 27 100
- 0.236 1 4 cbr 210 ------- 0 0.1 1073741824.0 27 100
- 0.2372 0 1 cbr 210 ------- 0 0.1 1073741824.0 30 108
+ 0.2375 0 1 cbr 210 ------- 0 0.1 1073741824.0 50 153
r 0.23816 1 3 cbr 210 ------- 0 0.1 1073741824.0 25 95
r 0.2404 1 4 cbr 210 ------- 0 0.1 1073741824.0 25 95
+ 0.24125 0 1 cbr 210 ------- 0 0.1 1073741824.0 51 155
r 0.2416 0 1 cbr 210 ------- 0 0.1 1073741824.0 28 103
+ 0.2416 1 3 cbr 210 ------- 0 0.1 1073741824.0 28 103
- 0.2416 1 3 cbr 210 ------- 0 0.1 1073741824.0 28 103
+ 0.2416 1 4 cbr 210 ------- 0 0.1 1073741824.0 28 103
- 0.2416 1 4 cbr 210 ------- 0 0.1 1073741824.0 28 103
- 0.2428 0 1 cbr 210 ------- 0 0.1 1073741824.0 31 110
r 0.24376 1 3 cbr 210 ------- 0 0.1 1073741824.0 26 98
+ 0.245 0 1 cbr 210 ------- 0 0.1 1073741824.0 52 157
r 0.246 1 4 cbr 210 ------- 0 0.1 1073741824.0 26 98
r 0.2472 0 1 cbr 210 ------- 0 0.1 1073741824.0 29 105
+ 0.2472 1 3 cbr 210 ------- 0 0.1 1073741824.0 29 105
- 0.2472 1 3 cbr 210 ------- 0 0.1 1073741824.0 29 105
+ 0.2472 1 4 cbr 210 ------- 0 0.1 1073741824.0 29 105
- 0.2472 1 4 cbr 210 ------- 0 0.1 1073741824.0 29 105
- 0.2484 0 1 cbr 210 ------- 0 0.1 1073741824.0 32 113
+ 0.24875 0 1 cbr 210 ------- 0 0.1 1073741824.0 53 159
r 0.24936 1 3 cbr 210 ------- 0 0.1 1073741824.0 27 100
r 0.2516 1 4 cbr 210 ------- 0 0.1 1073741824.0 27 100