n -t * -s 0  -x 30 -y 10 -Z 0 -z 30  -v circle -c green
n -t * -s 1  -x 40 -y 20 -Z 0 -z 30  -v circle -c green
n -t * -s 2  -x 50 -y 30 -Z 0 -z 30  -v circle -c green
n -t * -s 3  -x 60 -y 40 -Z 0 -z 30  -v circle -c green
n -t * -s 4  -x 70 -y 50 -Z 0 -z 30  -v circle -c green
n -t * -s 5  -x 0 -y 0 -Z 0 -z 30  -v circle -c green
n -t * -s 6  -x 0 -y 0 -Z 0 -z 30  -v circle -c green
n -t * -s 7  -x 0 -y 0 -Z 0 -z 30  -v circle -c green
n -t * -s 8  -x 0 -y 0 -Z 0 -z 30  -v circle -c green
n -t * -s 9  -x 0 -y 0 -Z 0 -z 30  -v circle -c green
n -t * -s 10  -x 0 -y 0 -Z 0 -z 30  -v circle -c green
n -t * -s 11  -x 0 -y 0 -Z 0 -z 30  -v circle -c green
n -t * -s 12  -x 0 -y 0 -Z 0 -z 30  -v circle -c green
n -t * -s 13  -x 0 -y 0 -Z 0 -z 30  -v circle -c green
n -t * -s 14  -x 0 -y 0 -Z 0 -z 30  -v circle -c green
n -t * -s 15  -x 0 -y 0 -Z 0 -z 30  -v circle -c green
n -t * -s 16  -x 0 -y 0 -Z 0 -z 30  -v circle -c green
n -t * -s 17  -x 0 -y 0 -Z 0 -z 30  -v circle -c green
n -t * -s 18  -x 0 -y 0 -Z 0 -z 30  -v circle -c green
n -t * -s 19  -x 0 -y 0 -Z 0 -z 30  -v circle -c green
V -t * -v 1.0a5 -a 0
W -t * -x 100 -y 100
A -t * -n 1 -p 0 -o 0x7fffffff -c 30 -a 1
A -t * -h 1 -m 1073741823 -s 0
+ -t 3.000000000 -s 1 -d -1 -p cbr -e 512 -c 2 -a 0 -i 0 -k AGT 
- -t 3.000000000 -s 1 -d -1 -p cbr -e 512 -c 2 -a 0 -i 0 -k AGT
h -t 3.000000000 -s 1 -d -1 -p cbr -e 512 -c 2 -a 0 -i 0 -k AGT
+ -t 3.000000000 -s 2 -d -1 -p cbr -e 512 -c 2 -a 0 -i 2 -k AGT 
- -t 3.000000000 -s 2 -d -1 -p cbr -e 512 -c 2 -a 0 -i 2 -k AGT
h -t 3.000000000 -s 2 -d -1 -p cbr -e 512 -c 2 -a 0 -i 2 -k AGT
+ -t 3.000000000 -s 3 -d -1 -p cbr -e 512 -c 2 -a 0 -i 4 -k AGT 
- -t 3.000000000 -s 3 -d -1 -p cbr -e 512 -c 2 -a 0 -i 4 -k AGT
h -t 3.000000000 -s 3 -d -1 -p cbr -e 512 -c 2 -a 0 -i 4 -k AGT
+ -t 3.000000000 -s 4 -d -1 -p cbr -e 512 -c 2 -a 0 -i 6 -k AGT 
- -t 3.000000000 -s 4 -d -1 -p cbr -e 512 -c 2 -a 0 -i 6 -k AGT
h -t 3.000000000 -s 4 -d -1 -p cbr -e 512 -c 2 -a 0 -i 6 -k AGT
+ -t 3.000000000 -s 5 -d -1 -p cbr -e 512 -c 2 -a 0 -i 8 -k AGT 
- -t 3.000000000 -s 5 -d -1 -p cbr -e 512 -c 2 -a 0 -i 8 -k AGT
h -t 3.000000000 -s 5 -d -1 -p cbr -e 512 -c 2 -a 0 -i 8 -k AGT
+ -t 3.000000000 -s 6 -d -1 -p cbr -e 512 -c 2 -a 0 -i 10 -k AGT 
- -t 3.000000000 -s 6 -d -1 -p cbr -e 512 -c 2 -a 0 -i 10 -k AGT
h -t 3.000000000 -s 6 -d -1 -p cbr -e 512 -c 2 -a 0 -i 10 -k AGT
+ -t 3.000000000 -s 7 -d -1 -p cbr -e 512 -c 2 -a 0 -i 12 -k AGT 
- -t 3.000000000 -s 7 -d -1 -p cbr -e 512 -c 2 -a 0 -i 12 -k AGT
h -t 3.000000000 -s 7 -d -1 -p cbr -e 512 -c 2 -a 0 -i 12 -k AGT
+ -t 3.000000000 -s 8 -d -1 -p cbr -e 512 -c 2 -a 0 -i 14 -k AGT 
- -t 3.000000000 -s 8 -d -1 -p cbr -e 512 -c 2 -a 0 -i 14 -k AGT
h -t 3.000000000 -s 8 -d -1 -p cbr -e 512 -c 2 -a 0 -i 14 -k AGT
+ -t 3.000000000 -s 9 -d -1 -p cbr -e 512 -c 2 -a 0 -i 16 -k AGT 
- -t 3.000000000 -s 9 -d -1 -p cbr -e 512 -c 2 -a 0 -i 16 -k AGT
h -t 3.000000000 -s 9 -d -1 -p cbr -e 512 -c 2 -a 0 -i 16 -k AGT
+ -t 3.000000000 -s 10 -d -1 -p cbr -e 512 -c 2 -a 0 -i 18 -k AGT 
- -t 3.000000000 -s 10 -d -1 -p cbr -e 512 -c 2 -a 0 -i 18 -k AGT
h -t 3.000000000 -s 10 -d -1 -p cbr -e 512 -c 2 -a 0 -i 18 -k AGT
+ -t 3.000000000 -s 11 -d -1 -p cbr -e 512 -c 2 -a 0 -i 20 -k AGT 
- -t 3.000000000 -s 11 -d -1 -p cbr -e 512 -c 2 -a 0 -i 20 -k AGT
h -t 3.000000000 -s 11 -d -1 -p cbr -e 512 -c 2 -a 0 -i 20 -k AGT
+ -t 3.000000000 -s 12 -d -1 -p cbr -e 512 -c 2 -a 0 -i 22 -k AGT 
- -t 3.000000000 -s 12 -d -1 -p cbr -e 512 -c 2 -a 0 -i 22 -k AGT
h -t 3.000000000 -s 12 -d -1 -p cbr -e 512 -c 2 -a 0 -i 22 -k AGT
+ -t 3.000000000 -s 13 -d -1 -p cbr -e 512 -c 2 -a 0 -i 24 -k AGT 
- -t 3.000000000 -s 13 -d -1 -p cbr -e 512 -c 2 -a 0 -i 24 -k AGT
h -t 3.000000000 -s 13 -d -1 -p cbr -e 512 -c 2 -a 0 -i 24 -k AGT
+ -t 3.000000000 -s 14 -d -1 -p cbr -e 512 -c 2 -a 0 -i 26 -k AGT 
- -t 3.000000000 -s 14 -d -1 -p cbr -e 512 -c 2 -a 0 -i 26 -k AGT
h -t 3.000000000 -s 14 -d -1 -p cbr -e 512 -c 2 -a 0 -i 26 -k AGT
+ -t 3.000000000 -s 15 -d -1 -p cbr -e 512 -c 2 -a 0 -i 28 -k AGT 
- -t 3.000000000 -s 15 -d -1 -p cbr -e 512 -c 2 -a 0 -i 28 -k AGT
h -t 3.000000000 -s 15 -d -1 -p cbr -e 512 -c 2 -a 0 -i 28 -k AGT
+ -t 3.000000000 -s 16 -d -1 -p cbr -e 512 -c 2 -a 0 -i 30 -k AGT 
- -t 3.000000000 -s 16 -d -1 -p cbr -e 512 -c 2 -a 0 -i 30 -k AGT
h -t 3.000000000 -s 16 -d -1 -p cbr -e 512 -c 2 -a 0 -i 30 -k AGT
+ -t 3.000000000 -s 17 -d -1 -p cbr -e 512 -c 2 -a 0 -i 32 -k AGT 
- -t 3.000000000 -s 17 -d -1 -p cbr -e 512 -c 2 -a 0 -i 32 -k AGT
h -t 3.000000000 -s 17 -d -1 -p cbr -e 512 -c 2 -a 0 -i 32 -k AGT
+ -t 3.000000000 -s 18 -d -1 -p cbr -e 512 -c 2 -a 0 -i 34 -k AGT 
- -t 3.000000000 -s 18 -d -1 -p cbr -e 512 -c 2 -a 0 -i 34 -k AGT
h -t 3.000000000 -s 18 -d -1 -p cbr -e 512 -c 2 -a 0 -i 34 -k AGT
+ -t 3.000000000 -s 19 -d -1 -p cbr -e 512 -c 2 -a 0 -i 36 -k AGT 
- -t 3.000000000 -s 19 -d -1 -p cbr -e 512 -c 2 -a 0 -i 36 -k AGT
h -t 3.000000000 -s 19 -d -1 -p cbr -e 512 -c 2 -a 0 -i 36 -k AGT
+ -t 3.000103866 -s 16 -d -1 -p DSR -e 32 -c 2 -a 0 -i 31 -k RTR 
- -t 3.000103866 -s 16 -d -1 -p DSR -e 32 -c 2 -a 0 -i 31 -k RTR
h -t 3.000103866 -s 16 -d -1 -p DSR -e 32 -c 2 -a 0 -i 31 -k RTR
+ -t 3.001458833 -s 17 -d -1 -p DSR -e 32 -c 2 -a 0 -i 33 -k RTR 
- -t 3.001458833 -s 17 -d -1 -p DSR -e 32 -c 2 -a 0 -i 33 -k RTR
h -t 3.001458833 -s 17 -d -1 -p DSR -e 32 -c 2 -a 0 -i 33 -k RTR
+ -t 3.001983789 -s 1 -d -1 -p DSR -e 32 -c 2 -a 0 -i 1 -k RTR 
- -t 3.001983789 -s 1 -d -1 -p DSR -e 32 -c 2 -a 0 -i 1 -k RTR
h -t 3.001983789 -s 1 -d -1 -p DSR -e 32 -c 2 -a 0 -i 1 -k RTR
+ -t 3.002086665 -s 12 -d -1 -p DSR -e 32 -c 2 -a 0 -i 23 -k RTR 
- -t 3.002086665 -s 12 -d -1 -p DSR -e 32 -c 2 -a 0 -i 23 -k RTR
h -t 3.002086665 -s 12 -d -1 -p DSR -e 32 -c 2 -a 0 -i 23 -k RTR
+ -t 3.002309438 -s 10 -d -1 -p DSR -e 32 -c 2 -a 0 -i 19 -k RTR 
- -t 3.002309438 -s 10 -d -1 -p DSR -e 32 -c 2 -a 0 -i 19 -k RTR
h -t 3.002309438 -s 10 -d -1 -p DSR -e 32 -c 2 -a 0 -i 19 -k RTR
+ -t 3.002459947 -s 14 -d -1 -p DSR -e 32 -c 2 -a 0 -i 27 -k RTR 
- -t 3.002459947 -s 14 -d -1 -p DSR -e 32 -c 2 -a 0 -i 27 -k RTR
h -t 3.002459947 -s 14 -d -1 -p DSR -e 32 -c 2 -a 0 -i 27 -k RTR
+ -t 3.003628209 -s 9 -d -1 -p DSR -e 32 -c 2 -a 0 -i 17 -k RTR 
- -t 3.003628209 -s 9 -d -1 -p DSR -e 32 -c 2 -a 0 -i 17 -k RTR
h -t 3.003628209 -s 9 -d -1 -p DSR -e 32 -c 2 -a 0 -i 17 -k RTR
+ -t 3.004408578 -s 6 -d -1 -p DSR -e 32 -c 2 -a 0 -i 11 -k RTR 
- -t 3.004408578 -s 6 -d -1 -p DSR -e 32 -c 2 -a 0 -i 11 -k RTR
h -t 3.004408578 -s 6 -d -1 -p DSR -e 32 -c 2 -a 0 -i 11 -k RTR
+ -t 3.004445605 -s 0 -d 10 -p DSR -e 44 -c 2 -a 0 -i 46 -k RTR 
- -t 3.004445605 -s 0 -d 10 -p DSR -e 44 -c 2 -a 0 -i 46 -k RTR
h -t 3.004445605 -s 0 -d 10 -p DSR -e 44 -c 2 -a 0 -i 46 -k RTR
+ -t 3.004849422 -s 7 -d -1 -p DSR -e 32 -c 2 -a 0 -i 13 -k RTR 
- -t 3.004849422 -s 7 -d -1 -p DSR -e 32 -c 2 -a 0 -i 13 -k RTR
h -t 3.004849422 -s 7 -d -1 -p DSR -e 32 -c 2 -a 0 -i 13 -k RTR
+ -t 3.005506805 -s 5 -d -1 -p DSR -e 32 -c 2 -a 0 -i 9 -k RTR 
- -t 3.005506805 -s 5 -d -1 -p DSR -e 32 -c 2 -a 0 -i 9 -k RTR
h -t 3.005506805 -s 5 -d -1 -p DSR -e 32 -c 2 -a 0 -i 9 -k RTR
+ -t 3.005521798 -s 15 -d -1 -p DSR -e 32 -c 2 -a 0 -i 29 -k RTR 
- -t 3.005521798 -s 15 -d -1 -p DSR -e 32 -c 2 -a 0 -i 29 -k RTR
h -t 3.005521798 -s 15 -d -1 -p DSR -e 32 -c 2 -a 0 -i 29 -k RTR
+ -t 3.005791274 -s 11 -d -1 -p DSR -e 32 -c 2 -a 0 -i 21 -k RTR 
- -t 3.005791274 -s 11 -d -1 -p DSR -e 32 -c 2 -a 0 -i 21 -k RTR
h -t 3.005791274 -s 11 -d -1 -p DSR -e 32 -c 2 -a 0 -i 21 -k RTR
+ -t 3.006112691 -s 19 -d -1 -p DSR -e 32 -c 2 -a 0 -i 37 -k RTR 
- -t 3.006112691 -s 19 -d -1 -p DSR -e 32 -c 2 -a 0 -i 37 -k RTR
h -t 3.006112691 -s 19 -d -1 -p DSR -e 32 -c 2 -a 0 -i 37 -k RTR
+ -t 3.006510431 -s 4 -d -1 -p DSR -e 32 -c 2 -a 0 -i 7 -k RTR 
- -t 3.006510431 -s 4 -d -1 -p DSR -e 32 -c 2 -a 0 -i 7 -k RTR
h -t 3.006510431 -s 4 -d -1 -p DSR -e 32 -c 2 -a 0 -i 7 -k RTR
+ -t 3.007108847 -s 13 -d -1 -p DSR -e 32 -c 2 -a 0 -i 25 -k RTR 
- -t 3.007108847 -s 13 -d -1 -p DSR -e 32 -c 2 -a 0 -i 25 -k RTR
h -t 3.007108847 -s 13 -d -1 -p DSR -e 32 -c 2 -a 0 -i 25 -k RTR
+ -t 3.007139090 -s 2 -d -1 -p DSR -e 32 -c 2 -a 0 -i 3 -k RTR 
- -t 3.007139090 -s 2 -d -1 -p DSR -e 32 -c 2 -a 0 -i 3 -k RTR
h -t 3.007139090 -s 2 -d -1 -p DSR -e 32 -c 2 -a 0 -i 3 -k RTR
+ -t 3.007476764 -s 0 -d 1 -p DSR -e 44 -c 2 -a 0 -i 47 -k RTR 
- -t 3.007476764 -s 0 -d 1 -p DSR -e 44 -c 2 -a 0 -i 47 -k RTR
h -t 3.007476764 -s 0 -d 1 -p DSR -e 44 -c 2 -a 0 -i 47 -k RTR
+ -t 3.008323815 -s 0 -d 17 -p DSR -e 44 -c 2 -a 0 -i 42 -k RTR 
- -t 3.008323815 -s 0 -d 17 -p DSR -e 44 -c 2 -a 0 -i 42 -k RTR
h -t 3.008323815 -s 0 -d 17 -p DSR -e 44 -c 2 -a 0 -i 42 -k RTR
+ -t 3.008441908 -s 18 -d -1 -p DSR -e 32 -c 2 -a 0 -i 35 -k RTR 
- -t 3.008441908 -s 18 -d -1 -p DSR -e 32 -c 2 -a 0 -i 35 -k RTR
h -t 3.008441908 -s 18 -d -1 -p DSR -e 32 -c 2 -a 0 -i 35 -k RTR
+ -t 3.009149591 -s 0 -d 15 -p DSR -e 44 -c 2 -a 0 -i 50 -k RTR 
- -t 3.009149591 -s 0 -d 15 -p DSR -e 44 -c 2 -a 0 -i 50 -k RTR
h -t 3.009149591 -s 0 -d 15 -p DSR -e 44 -c 2 -a 0 -i 50 -k RTR
+ -t 3.009305974 -s 3 -d -1 -p DSR -e 32 -c 2 -a 0 -i 5 -k RTR 
- -t 3.009305974 -s 3 -d -1 -p DSR -e 32 -c 2 -a 0 -i 5 -k RTR
h -t 3.009305974 -s 3 -d -1 -p DSR -e 32 -c 2 -a 0 -i 5 -k RTR
+ -t 3.009393512 -s 8 -d -1 -p DSR -e 32 -c 2 -a 0 -i 15 -k RTR 
- -t 3.009393512 -s 8 -d -1 -p DSR -e 32 -c 2 -a 0 -i 15 -k RTR
h -t 3.009393512 -s 8 -d -1 -p DSR -e 32 -c 2 -a 0 -i 15 -k RTR
+ -t 3.010162200 -s 0 -d 7 -p DSR -e 44 -c 2 -a 0 -i 48 -k RTR 
- -t 3.010162200 -s 0 -d 7 -p DSR -e 44 -c 2 -a 0 -i 48 -k RTR
h -t 3.010162200 -s 0 -d 7 -p DSR -e 44 -c 2 -a 0 -i 48 -k RTR
+ -t 3.011155561 -s 0 -d 16 -p DSR -e 44 -c 2 -a 0 -i 40 -k RTR 
- -t 3.011155561 -s 0 -d 16 -p DSR -e 44 -c 2 -a 0 -i 40 -k RTR
h -t 3.011155561 -s 0 -d 16 -p DSR -e 44 -c 2 -a 0 -i 40 -k RTR
+ -t 3.012526381 -s 0 -d 12 -p DSR -e 44 -c 2 -a 0 -i 45 -k RTR 
- -t 3.012526381 -s 0 -d 12 -p DSR -e 44 -c 2 -a 0 -i 45 -k RTR
h -t 3.012526381 -s 0 -d 12 -p DSR -e 44 -c 2 -a 0 -i 45 -k RTR
+ -t 3.013456554 -s 0 -d 11 -p DSR -e 44 -c 2 -a 0 -i 51 -k RTR 
- -t 3.013456554 -s 0 -d 11 -p DSR -e 44 -c 2 -a 0 -i 51 -k RTR
h -t 3.013456554 -s 0 -d 11 -p DSR -e 44 -c 2 -a 0 -i 51 -k RTR
+ -t 3.014476772 -s 0 -d 14 -p DSR -e 44 -c 2 -a 0 -i 49 -k RTR 
- -t 3.014476772 -s 0 -d 14 -p DSR -e 44 -c 2 -a 0 -i 49 -k RTR
h -t 3.014476772 -s 0 -d 14 -p DSR -e 44 -c 2 -a 0 -i 49 -k RTR
+ -t 3.016485556 -s 0 -d 9 -p DSR -e 44 -c 2 -a 0 -i 52 -k RTR 
- -t 3.016485556 -s 0 -d 9 -p DSR -e 44 -c 2 -a 0 -i 52 -k RTR
h -t 3.016485556 -s 0 -d 9 -p DSR -e 44 -c 2 -a 0 -i 52 -k RTR
+ -t 3.018480123 -s 0 -d 13 -p DSR -e 44 -c 2 -a 0 -i 56 -k RTR 
- -t 3.018480123 -s 0 -d 13 -p DSR -e 44 -c 2 -a 0 -i 56 -k RTR
h -t 3.018480123 -s 0 -d 13 -p DSR -e 44 -c 2 -a 0 -i 56 -k RTR
+ -t 3.019070068 -s 0 -d 8 -p DSR -e 44 -c 2 -a 0 -i 57 -k RTR 
- -t 3.019070068 -s 0 -d 8 -p DSR -e 44 -c 2 -a 0 -i 57 -k RTR
h -t 3.019070068 -s 0 -d 8 -p DSR -e 44 -c 2 -a 0 -i 57 -k RTR
+ -t 3.021599763 -s 0 -d 18 -p DSR -e 44 -c 2 -a 0 -i 54 -k RTR 
- -t 3.021599763 -s 0 -d 18 -p DSR -e 44 -c 2 -a 0 -i 54 -k RTR
h -t 3.021599763 -s 0 -d 18 -p DSR -e 44 -c 2 -a 0 -i 54 -k RTR
+ -t 3.023765613 -s 10 -d 0 -p cbr -e 548 -c 2 -a 0 -i 18 -k RTR 
- -t 3.023765613 -s 10 -d 0 -p cbr -e 548 -c 2 -a 0 -i 18 -k RTR
h -t 3.023765613 -s 10 -d 0 -p cbr -e 548 -c 2 -a 0 -i 18 -k RTR
+ -t 3.024255464 -s 6 -d 0 -p cbr -e 548 -c 2 -a 0 -i 10 -k RTR 
- -t 3.024255464 -s 6 -d 0 -p cbr -e 548 -c 2 -a 0 -i 10 -k RTR
h -t 3.024255464 -s 6 -d 0 -p cbr -e 548 -c 2 -a 0 -i 10 -k RTR
r -t 3.031742350 -s 0 -d 0 -p cbr -e 512 -c 2 -a 0 -i 18 -k AGT
+ -t 3.035549264 -s 8 -d 0 -p cbr -e 548 -c 2 -a 0 -i 14 -k RTR 
- -t 3.035549264 -s 8 -d 0 -p cbr -e 548 -c 2 -a 0 -i 14 -k RTR
h -t 3.035549264 -s 8 -d 0 -p cbr -e 548 -c 2 -a 0 -i 14 -k RTR
r -t 3.037710772 -s 0 -d 0 -p cbr -e 512 -c 2 -a 0 -i 10 -k AGT
+ -t 3.037749217 -s 14 -d 0 -p cbr -e 548 -c 2 -a 0 -i 26 -k RTR 
- -t 3.037749217 -s 14 -d 0 -p cbr -e 548 -c 2 -a 0 -i 26 -k RTR
h -t 3.037749217 -s 14 -d 0 -p cbr -e 548 -c 2 -a 0 -i 26 -k RTR
+ -t 3.037893579 -s 19 -d 0 -p cbr -e 548 -c 2 -a 0 -i 36 -k RTR 
- -t 3.037893579 -s 19 -d 0 -p cbr -e 548 -c 2 -a 0 -i 36 -k RTR
h -t 3.037893579 -s 19 -d 0 -p cbr -e 548 -c 2 -a 0 -i 36 -k RTR
+ -t 3.039686914 -s 1 -d 0 -p cbr -e 548 -c 2 -a 0 -i 0 -k RTR 
- -t 3.039686914 -s 1 -d 0 -p cbr -e 548 -c 2 -a 0 -i 0 -k RTR
h -t 3.039686914 -s 1 -d 0 -p cbr -e 548 -c 2 -a 0 -i 0 -k RTR
+ -t 3.040554393 -s 16 -d 0 -p cbr -e 548 -c 2 -a 0 -i 30 -k RTR 
- -t 3.040554393 -s 16 -d 0 -p cbr -e 548 -c 2 -a 0 -i 30 -k RTR
h -t 3.040554393 -s 16 -d 0 -p cbr -e 548 -c 2 -a 0 -i 30 -k RTR
+ -t 3.040960000 -s 1 -d -1 -p cbr -e 512 -c 2 -a 0 -i 62 -k AGT 
- -t 3.040960000 -s 1 -d -1 -p cbr -e 512 -c 2 -a 0 -i 62 -k AGT
h -t 3.040960000 -s 1 -d -1 -p cbr -e 512 -c 2 -a 0 -i 62 -k AGT
+ -t 3.040960000 -s 2 -d -1 -p cbr -e 512 -c 2 -a 0 -i 63 -k AGT 
- -t 3.040960000 -s 2 -d -1 -p cbr -e 512 -c 2 -a 0 -i 63 -k AGT
h -t 3.040960000 -s 2 -d -1 -p cbr -e 512 -c 2 -a 0 -i 63 -k AGT
+ -t 3.040960000 -s 3 -d -1 -p cbr -e 512 -c 2 -a 0 -i 64 -k AGT 
- -t 3.040960000 -s 3 -d -1 -p cbr -e 512 -c 2 -a 0 -i 64 -k AGT
h -t 3.040960000 -s 3 -d -1 -p cbr -e 512 -c 2 -a 0 -i 64 -k AGT
+ -t 3.040960000 -s 4 -d -1 -p cbr -e 512 -c 2 -a 0 -i 65 -k AGT 
- -t 3.040960000 -s 4 -d -1 -p cbr -e 512 -c 2 -a 0 -i 65 -k AGT
h -t 3.040960000 -s 4 -d -1 -p cbr -e 512 -c 2 -a 0 -i 65 -k AGT
+ -t 3.040960000 -s 5 -d -1 -p cbr -e 512 -c 2 -a 0 -i 66 -k AGT 
- -t 3.040960000 -s 5 -d -1 -p cbr -e 512 -c 2 -a 0 -i 66 -k AGT
h -t 3.040960000 -s 5 -d -1 -p cbr -e 512 -c 2 -a 0 -i 66 -k AGT
+ -t 3.040960000 -s 6 -d -1 -p cbr -e 512 -c 2 -a 0 -i 67 -k AGT 
- -t 3.040960000 -s 6 -d -1 -p cbr -e 512 -c 2 -a 0 -i 67 -k AGT
h -t 3.040960000 -s 6 -d -1 -p cbr -e 512 -c 2 -a 0 -i 67 -k AGT
+ -t 3.040960000 -s 7 -d -1 -p cbr -e 512 -c 2 -a 0 -i 68 -k AGT 
- -t 3.040960000 -s 7 -d -1 -p cbr -e 512 -c 2 -a 0 -i 68 -k AGT
h -t 3.040960000 -s 7 -d -1 -p cbr -e 512 -c 2 -a 0 -i 68 -k AGT
+ -t 3.040960000 -s 8 -d -1 -p cbr -e 512 -c 2 -a 0 -i 69 -k AGT 
- -t 3.040960000 -s 8 -d -1 -p cbr -e 512 -c 2 -a 0 -i 69 -k AGT
h -t 3.040960000 -s 8 -d -1 -p cbr -e 512 -c 2 -a 0 -i 69 -k AGT
+ -t 3.040960000 -s 9 -d -1 -p cbr -e 512 -c 2 -a 0 -i 70 -k AGT 
- -t 3.040960000 -s 9 -d -1 -p cbr -e 512 -c 2 -a 0 -i 70 -k AGT
h -t 3.040960000 -s 9 -d -1 -p cbr -e 512 -c 2 -a 0 -i 70 -k AGT
+ -t 3.040960000 -s 10 -d -1 -p cbr -e 512 -c 2 -a 0 -i 71 -k AGT 
- -t 3.040960000 -s 10 -d -1 -p cbr -e 512 -c 2 -a 0 -i 71 -k AGT
h -t 3.040960000 -s 10 -d -1 -p cbr -e 512 -c 2 -a 0 -i 71 -k AGT
+ -t 3.040960000 -s 11 -d -1 -p cbr -e 512 -c 2 -a 0 -i 72 -k AGT 
- -t 3.040960000 -s 11 -d -1 -p cbr -e 512 -c 2 -a 0 -i 72 -k AGT
h -t 3.040960000 -s 11 -d -1 -p cbr -e 512 -c 2 -a 0 -i 72 -k AGT
+ -t 3.040960000 -s 12 -d -1 -p cbr -e 512 -c 2 -a 0 -i 73 -k AGT 
- -t 3.040960000 -s 12 -d -1 -p cbr -e 512 -c 2 -a 0 -i 73 -k AGT
h -t 3.040960000 -s 12 -d -1 -p cbr -e 512 -c 2 -a 0 -i 73 -k AGT
+ -t 3.040960000 -s 13 -d -1 -p cbr -e 512 -c 2 -a 0 -i 74 -k AGT 
- -t 3.040960000 -s 13 -d -1 -p cbr -e 512 -c 2 -a 0 -i 74 -k AGT
h -t 3.040960000 -s 13 -d -1 -p cbr -e 512 -c 2 -a 0 -i 74 -k AGT
+ -t 3.040960000 -s 14 -d -1 -p cbr -e 512 -c 2 -a 0 -i 75 -k AGT 
- -t 3.040960000 -s 14 -d -1 -p cbr -e 512 -c 2 -a 0 -i 75 -k AGT
h -t 3.040960000 -s 14 -d -1 -p cbr -e 512 -c 2 -a 0 -i 75 -k AGT
+ -t 3.040960000 -s 15 -d -1 -p cbr -e 512 -c 2 -a 0 -i 76 -k AGT 
- -t 3.040960000 -s 15 -d -1 -p cbr -e 512 -c 2 -a 0 -i 76 -k AGT
h -t 3.040960000 -s 15 -d -1 -p cbr -e 512 -c 2 -a 0 -i 76 -k AGT
+ -t 3.040960000 -s 16 -d -1 -p cbr -e 512 -c 2 -a 0 -i 77 -k AGT 
- -t 3.040960000 -s 16 -d -1 -p cbr -e 512 -c 2 -a 0 -i 77 -k AGT
h -t 3.040960000 -s 16 -d -1 -p cbr -e 512 -c 2 -a 0 -i 77 -k AGT
+ -t 3.040960000 -s 17 -d -1 -p cbr -e 512 -c 2 -a 0 -i 78 -k AGT 
- -t 3.040960000 -s 17 -d -1 -p cbr -e 512 -c 2 -a 0 -i 78 -k AGT
h -t 3.040960000 -s 17 -d -1 -p cbr -e 512 -c 2 -a 0 -i 78 -k AGT
+ -t 3.040960000 -s 18 -d -1 -p cbr -e 512 -c 2 -a 0 -i 79 -k AGT 
- -t 3.040960000 -s 18 -d -1 -p cbr -e 512 -c 2 -a 0 -i 79 -k AGT
h -t 3.040960000 -s 18 -d -1 -p cbr -e 512 -c 2 -a 0 -i 79 -k AGT
+ -t 3.040960000 -s 19 -d -1 -p cbr -e 512 -c 2 -a 0 -i 80 -k AGT 
- -t 3.040960000 -s 19 -d -1 -p cbr -e 512 -c 2 -a 0 -i 80 -k AGT
h -t 3.040960000 -s 19 -d -1 -p cbr -e 512 -c 2 -a 0 -i 80 -k AGT
+ -t 3.040960000 -s 1 -d 0 -p cbr -e 548 -c 2 -a 0 -i 62 -k RTR 
- -t 3.040960000 -s 1 -d 0 -p cbr -e 548 -c 2 -a 0 -i 62 -k RTR
h -t 3.040960000 -s 1 -d 0 -p cbr -e 548 -c 2 -a 0 -i 62 -k RTR
+ -t 3.040960000 -s 2 -d 0 -p cbr -e 548 -c 2 -a 0 -i 63 -k RTR 
- -t 3.040960000 -s 2 -d 0 -p cbr -e 548 -c 2 -a 0 -i 63 -k RTR
h -t 3.040960000 -s 2 -d 0 -p cbr -e 548 -c 2 -a 0 -i 63 -k RTR
+ -t 3.040960000 -s 3 -d 0 -p cbr -e 548 -c 2 -a 0 -i 64 -k RTR 
- -t 3.040960000 -s 3 -d 0 -p cbr -e 548 -c 2 -a 0 -i 64 -k RTR
h -t 3.040960000 -s 3 -d 0 -p cbr -e 548 -c 2 -a 0 -i 64 -k RTR
+ -t 3.040960000 -s 4 -d 0 -p cbr -e 548 -c 2 -a 0 -i 65 -k RTR 
- -t 3.040960000 -s 4 -d 0 -p cbr -e 548 -c 2 -a 0 -i 65 -k RTR
h -t 3.040960000 -s 4 -d 0 -p cbr -e 548 -c 2 -a 0 -i 65 -k RTR
+ -t 3.040960000 -s 5 -d 0 -p cbr -e 548 -c 2 -a 0 -i 66 -k RTR 
- -t 3.040960000 -s 5 -d 0 -p cbr -e 548 -c 2 -a 0 -i 66 -k RTR
h -t 3.040960000 -s 5 -d 0 -p cbr -e 548 -c 2 -a 0 -i 66 -k RTR
+ -t 3.040960000 -s 6 -d 0 -p cbr -e 548 -c 2 -a 0 -i 67 -k RTR 
- -t 3.040960000 -s 6 -d 0 -p cbr -e 548 -c 2 -a 0 -i 67 -k RTR
h -t 3.040960000 -s 6 -d 0 -p cbr -e 548 -c 2 -a 0 -i 67 -k RTR
+ -t 3.040960000 -s 7 -d 0 -p cbr -e 548 -c 2 -a 0 -i 68 -k RTR 
- -t 3.040960000 -s 7 -d 0 -p cbr -e 548 -c 2 -a 0 -i 68 -k RTR
h -t 3.040960000 -s 7 -d 0 -p cbr -e 548 -c 2 -a 0 -i 68 -k RTR
+ -t 3.040960000 -s 8 -d 0 -p cbr -e 548 -c 2 -a 0 -i 69 -k RTR 
- -t 3.040960000 -s 8 -d 0 -p cbr -e 548 -c 2 -a 0 -i 69 -k RTR
h -t 3.040960000 -s 8 -d 0 -p cbr -e 548 -c 2 -a 0 -i 69 -k RTR
+ -t 3.040960000 -s 9 -d 0 -p cbr -e 548 -c 2 -a 0 -i 70 -k RTR 
- -t 3.040960000 -s 9 -d 0 -p cbr -e 548 -c 2 -a 0 -i 70 -k RTR
h -t 3.040960000 -s 9 -d 0 -p cbr -e 548 -c 2 -a 0 -i 70 -k RTR
+ -t 3.040960000 -s 10 -d 0 -p cbr -e 548 -c 2 -a 0 -i 71 -k RTR 
- -t 3.040960000 -s 10 -d 0 -p cbr -e 548 -c 2 -a 0 -i 71 -k RTR
h -t 3.040960000 -s 10 -d 0 -p cbr -e 548 -c 2 -a 0 -i 71 -k RTR
+ -t 3.040960000 -s 11 -d 0 -p cbr -e 548 -c 2 -a 0 -i 72 -k RTR 
- -t 3.040960000 -s 11 -d 0 -p cbr -e 548 -c 2 -a 0 -i 72 -k RTR
h -t 3.040960000 -s 11 -d 0 -p cbr -e 548 -c 2 -a 0 -i 72 -k RTR
+ -t 3.040960000 -s 12 -d 0 -p cbr -e 548 -c 2 -a 0 -i 73 -k RTR 
- -t 3.040960000 -s 12 -d 0 -p cbr -e 548 -c 2 -a 0 -i 73 -k RTR
h -t 3.040960000 -s 12 -d 0 -p cbr -e 548 -c 2 -a 0 -i 73 -k RTR
+ -t 3.040960000 -s 13 -d 0 -p cbr -e 548 -c 2 -a 0 -i 74 -k RTR 
- -t 3.040960000 -s 13 -d 0 -p cbr -e 548 -c 2 -a 0 -i 74 -k RTR
h -t 3.040960000 -s 13 -d 0 -p cbr -e 548 -c 2 -a 0 -i 74 -k RTR
+ -t 3.040960000 -s 14 -d 0 -p cbr -e 548 -c 2 -a 0 -i 75 -k RTR 
- -t 3.040960000 -s 14 -d 0 -p cbr -e 548 -c 2 -a 0 -i 75 -k RTR
h -t 3.040960000 -s 14 -d 0 -p cbr -e 548 -c 2 -a 0 -i 75 -k RTR
+ -t 3.040960000 -s 15 -d 0 -p cbr -e 548 -c 2 -a 0 -i 76 -k RTR 
- -t 3.040960000 -s 15 -d 0 -p cbr -e 548 -c 2 -a 0 -i 76 -k RTR
h -t 3.040960000 -s 15 -d 0 -p cbr -e 548 -c 2 -a 0 -i 76 -k RTR
+ -t 3.040960000 -s 16 -d 0 -p cbr -e 548 -c 2 -a 0 -i 77 -k RTR 
- -t 3.040960000 -s 16 -d 0 -p cbr -e 548 -c 2 -a 0 -i 77 -k RTR
h -t 3.040960000 -s 16 -d 0 -p cbr -e 548 -c 2 -a 0 -i 77 -k RTR
+ -t 3.040960000 -s 17 -d 0 -p cbr -e 548 -c 2 -a 0 -i 78 -k RTR 
- -t 3.040960000 -s 17 -d 0 -p cbr -e 548 -c 2 -a 0 -i 78 -k RTR
h -t 3.040960000 -s 17 -d 0 -p cbr -e 548 -c 2 -a 0 -i 78 -k RTR
+ -t 3.040960000 -s 18 -d 0 -p cbr -e 548 -c 2 -a 0 -i 79 -k RTR 
- -t 3.040960000 -s 18 -d 0 -p cbr -e 548 -c 2 -a 0 -i 79 -k RTR
h -t 3.040960000 -s 18 -d 0 -p cbr -e 548 -c 2 -a 0 -i 79 -k RTR
+ -t 3.040960000 -s 19 -d 0 -p cbr -e 548 -c 2 -a 0 -i 80 -k RTR 
- -t 3.040960000 -s 19 -d 0 -p cbr -e 548 -c 2 -a 0 -i 80 -k RTR
h -t 3.040960000 -s 19 -d 0 -p cbr -e 548 -c 2 -a 0 -i 80 -k RTR
+ -t 3.041739684 -s 9 -d 0 -p cbr -e 548 -c 2 -a 0 -i 16 -k RTR 
- -t 3.041739684 -s 9 -d 0 -p cbr -e 548 -c 2 -a 0 -i 16 -k RTR
h -t 3.041739684 -s 9 -d 0 -p cbr -e 548 -c 2 -a 0 -i 16 -k RTR
+ -t 3.044802532 -s 2 -d 0 -p cbr -e 548 -c 2 -a 0 -i 2 -k RTR 
- -t 3.044802532 -s 2 -d 0 -p cbr -e 548 -c 2 -a 0 -i 2 -k RTR
h -t 3.044802532 -s 2 -d 0 -p cbr -e 548 -c 2 -a 0 -i 2 -k RTR
r -t 3.045735055 -s 0 -d 0 -p cbr -e 512 -c 2 -a 0 -i 0 -k AGT
+ -t 3.046340620 -s 5 -d 0 -p cbr -e 548 -c 2 -a 0 -i 8 -k RTR 
- -t 3.046340620 -s 5 -d 0 -p cbr -e 548 -c 2 -a 0 -i 8 -k RTR
h -t 3.046340620 -s 5 -d 0 -p cbr -e 548 -c 2 -a 0 -i 8 -k RTR
+ -t 3.046438148 -s 12 -d 0 -p cbr -e 548 -c 2 -a 0 -i 22 -k RTR 
- -t 3.046438148 -s 12 -d 0 -p cbr -e 548 -c 2 -a 0 -i 22 -k RTR
h -t 3.046438148 -s 12 -d 0 -p cbr -e 548 -c 2 -a 0 -i 22 -k RTR
+ -t 3.049014726 -s 11 -d 0 -p cbr -e 548 -c 2 -a 0 -i 20 -k RTR 
- -t 3.049014726 -s 11 -d 0 -p cbr -e 548 -c 2 -a 0 -i 20 -k RTR
h -t 3.049014726 -s 11 -d 0 -p cbr -e 548 -c 2 -a 0 -i 20 -k RTR
r -t 3.053255454 -s 0 -d 0 -p cbr -e 512 -c 2 -a 0 -i 62 -k AGT
+ -t 3.053958845 -s 15 -d 0 -p cbr -e 548 -c 2 -a 0 -i 28 -k RTR 
- -t 3.053958845 -s 15 -d 0 -p cbr -e 548 -c 2 -a 0 -i 28 -k RTR
h -t 3.053958845 -s 15 -d 0 -p cbr -e 548 -c 2 -a 0 -i 28 -k RTR
+ -t 3.054435525 -s 4 -d 0 -p cbr -e 548 -c 2 -a 0 -i 6 -k RTR 
- -t 3.054435525 -s 4 -d 0 -p cbr -e 548 -c 2 -a 0 -i 6 -k RTR
h -t 3.054435525 -s 4 -d 0 -p cbr -e 548 -c 2 -a 0 -i 6 -k RTR
+ -t 3.055041439 -s 17 -d 0 -p cbr -e 548 -c 2 -a 0 -i 32 -k RTR 
- -t 3.055041439 -s 17 -d 0 -p cbr -e 548 -c 2 -a 0 -i 32 -k RTR
h -t 3.055041439 -s 17 -d 0 -p cbr -e 548 -c 2 -a 0 -i 32 -k RTR
+ -t 3.059139653 -s 7 -d 0 -p cbr -e 548 -c 2 -a 0 -i 12 -k RTR 
- -t 3.059139653 -s 7 -d 0 -p cbr -e 548 -c 2 -a 0 -i 12 -k RTR
h -t 3.059139653 -s 7 -d 0 -p cbr -e 548 -c 2 -a 0 -i 12 -k RTR
r -t 3.059183876 -s 0 -d 0 -p cbr -e 512 -c 2 -a 0 -i 14 -k AGT
+ -t 3.060637178 -s 3 -d 0 -p cbr -e 548 -c 2 -a 0 -i 4 -k RTR 
- -t 3.060637178 -s 3 -d 0 -p cbr -e 548 -c 2 -a 0 -i 4 -k RTR
h -t 3.060637178 -s 3 -d 0 -p cbr -e 548 -c 2 -a 0 -i 4 -k RTR
r -t 3.065092298 -s 0 -d 0 -p cbr -e 512 -c 2 -a 0 -i 73 -k AGT
+ -t 3.065889354 -s 13 -d 0 -p cbr -e 548 -c 2 -a 0 -i 24 -k RTR 
- -t 3.065889354 -s 13 -d 0 -p cbr -e 548 -c 2 -a 0 -i 24 -k RTR
h -t 3.065889354 -s 13 -d 0 -p cbr -e 548 -c 2 -a 0 -i 24 -k RTR
+ -t 3.070846513 -s 18 -d 0 -p cbr -e 548 -c 2 -a 0 -i 34 -k RTR 
- -t 3.070846513 -s 18 -d 0 -p cbr -e 548 -c 2 -a 0 -i 34 -k RTR
h -t 3.070846513 -s 18 -d 0 -p cbr -e 548 -c 2 -a 0 -i 34 -k RTR
r -t 3.071806719 -s 0 -d 0 -p cbr -e 512 -c 2 -a 0 -i 71 -k AGT
r -t 3.077755141 -s 0 -d 0 -p cbr -e 512 -c 2 -a 0 -i 74 -k AGT
+ -t 3.081920000 -s 1 -d -1 -p cbr -e 512 -c 2 -a 0 -i 81 -k AGT 
- -t 3.081920000 -s 1 -d -1 -p cbr -e 512 -c 2 -a 0 -i 81 -k AGT
h -t 3.081920000 -s 1 -d -1 -p cbr -e 512 -c 2 -a 0 -i 81 -k AGT
+ -t 3.081920000 -s 2 -d -1 -p cbr -e 512 -c 2 -a 0 -i 82 -k AGT 
- -t 3.081920000 -s 2 -d -1 -p cbr -e 512 -c 2 -a 0 -i 82 -k AGT
h -t 3.081920000 -s 2 -d -1 -p cbr -e 512 -c 2 -a 0 -i 82 -k AGT
+ -t 3.081920000 -s 3 -d -1 -p cbr -e 512 -c 2 -a 0 -i 83 -k AGT 
- -t 3.081920000 -s 3 -d -1 -p cbr -e 512 -c 2 -a 0 -i 83 -k AGT
h -t 3.081920000 -s 3 -d -1 -p cbr -e 512 -c 2 -a 0 -i 83 -k AGT
+ -t 3.081920000 -s 4 -d -1 -p cbr -e 512 -c 2 -a 0 -i 84 -k AGT 
- -t 3.081920000 -s 4 -d -1 -p cbr -e 512 -c 2 -a 0 -i 84 -k AGT
h -t 3.081920000 -s 4 -d -1 -p cbr -e 512 -c 2 -a 0 -i 84 -k AGT
+ -t 3.081920000 -s 5 -d -1 -p cbr -e 512 -c 2 -a 0 -i 85 -k AGT 
- -t 3.081920000 -s 5 -d -1 -p cbr -e 512 -c 2 -a 0 -i 85 -k AGT
h -t 3.081920000 -s 5 -d -1 -p cbr -e 512 -c 2 -a 0 -i 85 -k AGT
+ -t 3.081920000 -s 6 -d -1 -p cbr -e 512 -c 2 -a 0 -i 86 -k AGT 
- -t 3.081920000 -s 6 -d -1 -p cbr -e 512 -c 2 -a 0 -i 86 -k AGT
h -t 3.081920000 -s 6 -d -1 -p cbr -e 512 -c 2 -a 0 -i 86 -k AGT
+ -t 3.081920000 -s 7 -d -1 -p cbr -e 512 -c 2 -a 0 -i 87 -k AGT 
- -t 3.081920000 -s 7 -d -1 -p cbr -e 512 -c 2 -a 0 -i 87 -k AGT
h -t 3.081920000 -s 7 -d -1 -p cbr -e 512 -c 2 -a 0 -i 87 -k AGT
+ -t 3.081920000 -s 8 -d -1 -p cbr -e 512 -c 2 -a 0 -i 88 -k AGT 
- -t 3.081920000 -s 8 -d -1 -p cbr -e 512 -c 2 -a 0 -i 88 -k AGT
h -t 3.081920000 -s 8 -d -1 -p cbr -e 512 -c 2 -a 0 -i 88 -k AGT
+ -t 3.081920000 -s 9 -d -1 -p cbr -e 512 -c 2 -a 0 -i 89 -k AGT 
- -t 3.081920000 -s 9 -d -1 -p cbr -e 512 -c 2 -a 0 -i 89 -k AGT
h -t 3.081920000 -s 9 -d -1 -p cbr -e 512 -c 2 -a 0 -i 89 -k AGT
+ -t 3.081920000 -s 10 -d -1 -p cbr -e 512 -c 2 -a 0 -i 90 -k AGT 
- -t 3.081920000 -s 10 -d -1 -p cbr -e 512 -c 2 -a 0 -i 90 -k AGT
h -t 3.081920000 -s 10 -d -1 -p cbr -e 512 -c 2 -a 0 -i 90 -k AGT
+ -t 3.081920000 -s 11 -d -1 -p cbr -e 512 -c 2 -a 0 -i 91 -k AGT 
- -t 3.081920000 -s 11 -d -1 -p cbr -e 512 -c 2 -a 0 -i 91 -k AGT
h -t 3.081920000 -s 11 -d -1 -p cbr -e 512 -c 2 -a 0 -i 91 -k AGT
+ -t 3.081920000 -s 12 -d -1 -p cbr -e 512 -c 2 -a 0 -i 92 -k AGT 
- -t 3.081920000 -s 12 -d -1 -p cbr -e 512 -c 2 -a 0 -i 92 -k AGT
h -t 3.081920000 -s 12 -d -1 -p cbr -e 512 -c 2 -a 0 -i 92 -k AGT
+ -t 3.081920000 -s 13 -d -1 -p cbr -e 512 -c 2 -a 0 -i 93 -k AGT 
- -t 3.081920000 -s 13 -d -1 -p cbr -e 512 -c 2 -a 0 -i 93 -k AGT
h -t 3.081920000 -s 13 -d -1 -p cbr -e 512 -c 2 -a 0 -i 93 -k AGT
+ -t 3.081920000 -s 14 -d -1 -p cbr -e 512 -c 2 -a 0 -i 94 -k AGT 
- -t 3.081920000 -s 14 -d -1 -p cbr -e 512 -c 2 -a 0 -i 94 -k AGT
h -t 3.081920000 -s 14 -d -1 -p cbr -e 512 -c 2 -a 0 -i 94 -k AGT
+ -t 3.081920000 -s 15 -d -1 -p cbr -e 512 -c 2 -a 0 -i 95 -k AGT 
- -t 3.081920000 -s 15 -d -1 -p cbr -e 512 -c 2 -a 0 -i 95 -k AGT
h -t 3.081920000 -s 15 -d -1 -p cbr -e 512 -c 2 -a 0 -i 95 -k AGT
+ -t 3.081920000 -s 16 -d -1 -p cbr -e 512 -c 2 -a 0 -i 96 -k AGT 
- -t 3.081920000 -s 16 -d -1 -p cbr -e 512 -c 2 -a 0 -i 96 -k AGT
h -t 3.081920000 -s 16 -d -1 -p cbr -e 512 -c 2 -a 0 -i 96 -k AGT
+ -t 3.081920000 -s 17 -d -1 -p cbr -e 512 -c 2 -a 0 -i 97 -k AGT 
- -t 3.081920000 -s 17 -d -1 -p cbr -e 512 -c 2 -a 0 -i 97 -k AGT
h -t 3.081920000 -s 17 -d -1 -p cbr -e 512 -c 2 -a 0 -i 97 -k AGT
+ -t 3.081920000 -s 18 -d -1 -p cbr -e 512 -c 2 -a 0 -i 98 -k AGT 
- -t 3.081920000 -s 18 -d -1 -p cbr -e 512 -c 2 -a 0 -i 98 -k AGT
h -t 3.081920000 -s 18 -d -1 -p cbr -e 512 -c 2 -a 0 -i 98 -k AGT
+ -t 3.081920000 -s 19 -d -1 -p cbr -e 512 -c 2 -a 0 -i 99 -k AGT 
- -t 3.081920000 -s 19 -d -1 -p cbr -e 512 -c 2 -a 0 -i 99 -k AGT
h -t 3.081920000 -s 19 -d -1 -p cbr -e 512 -c 2 -a 0 -i 99 -k AGT
+ -t 3.081920000 -s 1 -d 0 -p cbr -e 548 -c 2 -a 0 -i 81 -k RTR 
- -t 3.081920000 -s 1 -d 0 -p cbr -e 548 -c 2 -a 0 -i 81 -k RTR
h -t 3.081920000 -s 1 -d 0 -p cbr -e 548 -c 2 -a 0 -i 81 -k RTR
+ -t 3.081920000 -s 2 -d 0 -p cbr -e 548 -c 2 -a 0 -i 82 -k RTR 
- -t 3.081920000 -s 2 -d 0 -p cbr -e 548 -c 2 -a 0 -i 82 -k RTR
h -t 3.081920000 -s 2 -d 0 -p cbr -e 548 -c 2 -a 0 -i 82 -k RTR
+ -t 3.081920000 -s 3 -d 0 -p cbr -e 548 -c 2 -a 0 -i 83 -k RTR 
- -t 3.081920000 -s 3 -d 0 -p cbr -e 548 -c 2 -a 0 -i 83 -k RTR
h -t 3.081920000 -s 3 -d 0 -p cbr -e 548 -c 2 -a 0 -i 83 -k RTR
+ -t 3.081920000 -s 4 -d 0 -p cbr -e 548 -c 2 -a 0 -i 84 -k RTR 
- -t 3.081920000 -s 4 -d 0 -p cbr -e 548 -c 2 -a 0 -i 84 -k RTR
h -t 3.081920000 -s 4 -d 0 -p cbr -e 548 -c 2 -a 0 -i 84 -k RTR
+ -t 3.081920000 -s 5 -d 0 -p cbr -e 548 -c 2 -a 0 -i 85 -k RTR 
- -t 3.081920000 -s 5 -d 0 -p cbr -e 548 -c 2 -a 0 -i 85 -k RTR
h -t 3.081920000 -s 5 -d 0 -p cbr -e 548 -c 2 -a 0 -i 85 -k RTR
+ -t 3.081920000 -s 6 -d 0 -p cbr -e 548 -c 2 -a 0 -i 86 -k RTR 
- -t 3.081920000 -s 6 -d 0 -p cbr -e 548 -c 2 -a 0 -i 86 -k RTR
h -t 3.081920000 -s 6 -d 0 -p cbr -e 548 -c 2 -a 0 -i 86 -k RTR
+ -t 3.081920000 -s 7 -d 0 -p cbr -e 548 -c 2 -a 0 -i 87 -k RTR 
- -t 3.081920000 -s 7 -d 0 -p cbr -e 548 -c 2 -a 0 -i 87 -k RTR
h -t 3.081920000 -s 7 -d 0 -p cbr -e 548 -c 2 -a 0 -i 87 -k RTR
+ -t 3.081920000 -s 8 -d 0 -p cbr -e 548 -c 2 -a 0 -i 88 -k RTR 
- -t 3.081920000 -s 8 -d 0 -p cbr -e 548 -c 2 -a 0 -i 88 -k RTR
h -t 3.081920000 -s 8 -d 0 -p cbr -e 548 -c 2 -a 0 -i 88 -k RTR
+ -t 3.081920000 -s 9 -d 0 -p cbr -e 548 -c 2 -a 0 -i 89 -k RTR 
- -t 3.081920000 -s 9 -d 0 -p cbr -e 548 -c 2 -a 0 -i 89 -k RTR
h -t 3.081920000 -s 9 -d 0 -p cbr -e 548 -c 2 -a 0 -i 89 -k RTR
+ -t 3.081920000 -s 10 -d 0 -p cbr -e 548 -c 2 -a 0 -i 90 -k RTR 
- -t 3.081920000 -s 10 -d 0 -p cbr -e 548 -c 2 -a 0 -i 90 -k RTR
h -t 3.081920000 -s 10 -d 0 -p cbr -e 548 -c 2 -a 0 -i 90 -k RTR
+ -t 3.081920000 -s 11 -d 0 -p cbr -e 548 -c 2 -a 0 -i 91 -k RTR 
- -t 3.081920000 -s 11 -d 0 -p cbr -e 548 -c 2 -a 0 -i 91 -k RTR
h -t 3.081920000 -s 11 -d 0 -p cbr -e 548 -c 2 -a 0 -i 91 -k RTR
+ -t 3.081920000 -s 12 -d 0 -p cbr -e 548 -c 2 -a 0 -i 92 -k RTR 
- -t 3.081920000 -s 12 -d 0 -p cbr -e 548 -c 2 -a 0 -i 92 -k RTR
h -t 3.081920000 -s 12 -d 0 -p cbr -e 548 -c 2 -a 0 -i 92 -k RTR
+ -t 3.081920000 -s 13 -d 0 -p cbr -e 548 -c 2 -a 0 -i 93 -k RTR 
- -t 3.081920000 -s 13 -d 0 -p cbr -e 548 -c 2 -a 0 -i 93 -k RTR
h -t 3.081920000 -s 13 -d 0 -p cbr -e 548 -c 2 -a 0 -i 93 -k RTR
+ -t 3.081920000 -s 14 -d 0 -p cbr -e 548 -c 2 -a 0 -i 94 -k RTR 
- -t 3.081920000 -s 14 -d 0 -p cbr -e 548 -c 2 -a 0 -i 94 -k RTR
h -t 3.081920000 -s 14 -d 0 -p cbr -e 548 -c 2 -a 0 -i 94 -k RTR
+ -t 3.081920000 -s 15 -d 0 -p cbr -e 548 -c 2 -a 0 -i 95 -k RTR 
- -t 3.081920000 -s 15 -d 0 -p cbr -e 548 -c 2 -a 0 -i 95 -k RTR
h -t 3.081920000 -s 15 -d 0 -p cbr -e 548 -c 2 -a 0 -i 95 -k RTR
+ -t 3.081920000 -s 16 -d 0 -p cbr -e 548 -c 2 -a 0 -i 96 -k RTR 
- -t 3.081920000 -s 16 -d 0 -p cbr -e 548 -c 2 -a 0 -i 96 -k RTR
h -t 3.081920000 -s 16 -d 0 -p cbr -e 548 -c 2 -a 0 -i 96 -k RTR
+ -t 3.081920000 -s 17 -d 0 -p cbr -e 548 -c 2 -a 0 -i 97 -k RTR 
- -t 3.081920000 -s 17 -d 0 -p cbr -e 548 -c 2 -a 0 -i 97 -k RTR
h -t 3.081920000 -s 17 -d 0 -p cbr -e 548 -c 2 -a 0 -i 97 -k RTR
+ -t 3.081920000 -s 18 -d 0 -p cbr -e 548 -c 2 -a 0 -i 98 -k RTR 
- -t 3.081920000 -s 18 -d 0 -p cbr -e 548 -c 2 -a 0 -i 98 -k RTR