Sconfig 0.00000 tap: on snoop: rts? on errs? on
Sconfig 0.00000 salvage: on !bd replies? on
Sconfig 0.00000 grat error: on grat reply: on
Sconfig 0.00000 $reply for props: on ring 0 search: on
Sconfig 0.00000 using MOBICACHE
s -t 3.000000000 -Hs 1 -Hd -2 -Ni 1 -Nx 40.00 -Ny 20.00 -Nz 0.00 -Ne 3.400000 -Nl AGT -Nw --- -Ma 0 -Md 0 -Ms 0 -Mt 0 -Is 1.0 -Id 0.0 -It cbr -Il 512 -If 0 -Ii 0 -Iv 32 -Pn cbr -Pi 0 -Pf 0 -Po 0 
r -t 3.000000000 -Hs 1 -Hd -2 -Ni 1 -Nx 40.00 -Ny 20.00 -Nz 0.00 -Ne 3.400000 -Nl RTR -Nw --- -Ma 0 -Md 0 -Ms 0 -Mt 0 -Is 1.0 -Id 0.0 -It cbr -Il 512 -If 0 -Ii 0 -Iv 32 -Pn cbr -Pi 0 -Pf 0 -Po 0 
s -t 3.000000000 -Hs 2 -Hd -2 -Ni 2 -Nx 50.00 -Ny 30.00 -Nz 0.00 -Ne 3.400000 -Nl AGT -Nw --- -Ma 0 -Md 0 -Ms 0 -Mt 0 -Is 2.0 -Id 0.1 -It cbr -Il 512 -If 0 -Ii 2 -Iv 32 -Pn cbr -Pi 0 -Pf 0 -Po 0 
r -t 3.000000000 -Hs 2 -Hd -2 -Ni 2 -Nx 50.00 -Ny 30.00 -Nz 0.00 -Ne 3.400000 -Nl RTR -Nw --- -Ma 0 -Md 0 -Ms 0 -Mt 0 -Is 2.0 -Id 0.1 -It cbr -Il 512 -If 0 -Ii 2 -Iv 32 -Pn cbr -Pi 0 -Pf 0 -Po 0 
s -t 3.000000000 -Hs 3 -Hd -2 -Ni 3 -Nx 60.00 -Ny 40.00 -Nz 0.00 -Ne 3.400000 -Nl AGT -Nw --- -Ma 0 -Md 0 -Ms 0 -Mt 0 -Is 3.0 -Id 0.2 -It cbr -Il 512 -If 0 -Ii 4 -Iv 32 -Pn cbr -Pi 0 -Pf 0 -Po 0 
r -t 3.000000000 -Hs 3 -Hd -2 -Ni 3 -Nx 60.00 -Ny 40.00 -Nz 0.00 -Ne 3.400000 -Nl RTR -Nw --- -Ma 0 -Md 0 -Ms 0 -Mt 0 -Is 3.0 -Id 0.2 -It cbr -Il 512 -If 0 -Ii 4 -Iv 32 -Pn cbr -Pi 0 -Pf 0 -Po 0 
s -t 3.000000000 -Hs 4 -Hd -2 -Ni 4 -Nx 70.00 -Ny 50.00 -Nz 0.00 -Ne 3.400000 -Nl AGT -Nw --- -Ma 0 -Md 0 -Ms 0 -Mt 0 -Is 4.0 -Id 0.3 -It cbr -Il 512 -If 0 -Ii 6 -Iv 32 -Pn cbr -Pi 0 -Pf 0 -Po 0 
r -t 3.000000000 -Hs 4 -Hd -2 -Ni 4 -Nx 70.00 -Ny 50.00 -Nz 0.00 -Ne 3.400000 -Nl RTR -Nw --- -Ma 0 -Md 0 -Ms 0 -Mt 0 -Is 4.0 -Id 0.3 -It cbr -Il 512 -If 0 -Ii 6 -Iv 32 -Pn cbr -Pi 0 -Pf 0 -Po 0 
s -t 3.000000000 -Hs 5 -Hd -2 -Ni 5 -Nx 0.00 -Ny 0.00 -Nz 0.00 -Ne 3.400000 -Nl AGT -Nw --- -Ma 0 -Md 0 -Ms 0 -Mt 0 -Is 5.0 -Id 0.4 -It cbr -Il 512 -If 0 -Ii 8 -Iv 32 -Pn cbr -Pi 0 -Pf 0 -Po 0 
r -t 3.000000000 -Hs 5 -Hd -2 -Ni 5 -Nx 0.00 -Ny 0.00 -Nz 0.00 -Ne 3.400000 -Nl RTR -Nw --- -Ma 0 -Md 0 -Ms 0 -Mt 0 -Is 5.0 -Id 0.4 -It cbr -Il 512 -If 0 -Ii 8 -Iv 32 -Pn cbr -Pi 0 -Pf 0 -Po 0 
s -t 3.000000000 -Hs 6 -Hd -2 -Ni 6 -Nx 0.00 -Ny 0.00 -Nz 0.00 -Ne 3.400000 -Nl AGT -Nw --- -Ma 0 -Md 0 -Ms 0 -Mt 0 -Is 6.0 -Id 0.5 -It cbr -Il 512 -If 0 -Ii 10 -Iv 32 -Pn cbr -Pi 0 -Pf 0 -Po 0 
r -t 3.000000000 -Hs 6 -Hd -2 -Ni 6 -Nx 0.00 -Ny 0.00 -Nz 0.00 -Ne 3.400000 -Nl RTR -Nw --- -Ma 0 -Md 0 -Ms 0 -Mt 0 -Is 6.0 -Id 0.5 -It cbr -Il 512 -If 0 -Ii 10 -Iv 32 -Pn cbr -Pi 0 -Pf 0 -Po 0 
s -t 3.000000000 -Hs 7 -Hd -2 -Ni 7 -Nx 0.00 -Ny 0.00 -Nz 0.00 -Ne 3.400000 -Nl AGT -Nw --- -Ma 0 -Md 0 -Ms 0 -Mt 0 -Is 7.0 -Id 0.6 -It cbr -Il 512 -If 0 -Ii 12 -Iv 32 -Pn cbr -Pi 0 -Pf 0 -Po 0 
r -t 3.000000000 -Hs 7 -Hd -2 -Ni 7 -Nx 0.00 -Ny 0.00 -Nz 0.00 -Ne 3.400000 -Nl RTR -Nw --- -Ma 0 -Md 0 -Ms 0 -Mt 0 -Is 7.0 -Id 0.6 -It cbr -Il 512 -If 0 -Ii 12 -Iv 32 -Pn cbr -Pi 0 -Pf 0 -Po 0 
s -t 3.000000000 -Hs 8 -Hd -2 -Ni 8 -Nx 0.00 -Ny 0.00 -Nz 0.00 -Ne 3.400000 -Nl AGT -Nw --- -Ma 0 -Md 0 -Ms 0 -Mt 0 -Is 8.0 -Id 0.7 -It cbr -Il 512 -If 0 -Ii 14 -Iv 32 -Pn cbr -Pi 0 -Pf 0 -Po 0 
r -t 3.000000000 -Hs 8 -Hd -2 -Ni 8 -Nx 0.00 -Ny 0.00 -Nz 0.00 -Ne 3.400000 -Nl RTR -Nw --- -Ma 0 -Md 0 -Ms 0 -Mt 0 -Is 8.0 -Id 0.7 -It cbr -Il 512 -If 0 -Ii 14 -Iv 32 -Pn cbr -Pi 0 -Pf 0 -Po 0 
s -t 3.000000000 -Hs 9 -Hd -2 -Ni 9 -Nx 0.00 -Ny 0.00 -Nz 0.00 -Ne 3.400000 -Nl AGT -Nw --- -Ma 0 -Md 0 -Ms 0 -Mt 0 -Is 9.0 -Id 0.8 -It cbr -Il 512 -If 0 -Ii 16 -Iv 32 -Pn cbr -Pi 0 -Pf 0 -Po 0 
r -t 3.000000000 -Hs 9 -Hd -2 -Ni 9 -Nx 0.00 -Ny 0.00 -Nz 0.00 -Ne 3.400000 -Nl RTR -Nw --- -Ma 0 -Md 0 -Ms 0 -Mt 0 -Is 9.0 -Id 0.8 -It cbr -Il 512 -If 0 -Ii 16 -Iv 32 -Pn cbr -Pi 0 -Pf 0 -Po 0 
s -t 3.000000000 -Hs 10 -Hd -2 -Ni 10 -Nx 0.00 -Ny 0.00 -Nz 0.00 -Ne 3.400000 -Nl AGT -Nw --- -Ma 0 -Md 0 -Ms 0 -Mt 0 -Is 10.0 -Id 0.9 -It cbr -Il 512 -If 0 -Ii 18 -Iv 32 -Pn cbr -Pi 0 -Pf 0 -Po 0 
r -t 3.000000000 -Hs 10 -Hd -2 -Ni 10 -Nx 0.00 -Ny 0.00 -Nz 0.00 -Ne 3.400000 -Nl RTR -Nw --- -Ma 0 -Md 0 -Ms 0 -Mt 0 -Is 10.0 -Id 0.9 -It cbr -Il 512 -If 0 -Ii 18 -Iv 32 -Pn cbr -Pi 0 -Pf 0 -Po 0 
s -t 3.000000000 -Hs 11 -Hd -2 -Ni 11 -Nx 0.00 -Ny 0.00 -Nz 0.00 -Ne 3.400000 -Nl AGT -Nw --- -Ma 0 -Md 0 -Ms 0 -Mt 0 -Is 11.0 -Id 0.10 -It cbr -Il 512 -If 0 -Ii 20 -Iv 32 -Pn cbr -Pi 0 -Pf 0 -Po 0 
r -t 3.000000000 -Hs 11 -Hd -2 -Ni 11 -Nx 0.00 -Ny 0.00 -Nz 0.00 -Ne 3.400000 -Nl RTR -Nw --- -Ma 0 -Md 0 -Ms 0 -Mt 0 -Is 11.0 -Id 0.10 -It cbr -Il 512 -If 0 -Ii 20 -Iv 32 -Pn cbr -Pi 0 -Pf 0 -Po 0 
s -t 3.000000000 -Hs 12 -Hd -2 -Ni 12 -Nx 0.00 -Ny 0.00 -Nz 0.00 -Ne 3.400000 -Nl AGT -Nw --- -Ma 0 -Md 0 -Ms 0 -Mt 0 -Is 12.0 -Id 0.11 -It cbr -Il 512 -If 0 -Ii 22 -Iv 32 -Pn cbr -Pi 0 -Pf 0 -Po 0 
r -t 3.000000000 -Hs 12 -Hd -2 -Ni 12 -Nx 0.00 -Ny 0.00 -Nz 0.00 -Ne 3.400000 -Nl RTR -Nw --- -Ma 0 -Md 0 -Ms 0 -Mt 0 -Is 12.0 -Id 0.11 -It cbr -Il 512 -If 0 -Ii 22 -Iv 32 -Pn cbr -Pi 0 -Pf 0 -Po 0 
s -t 3.000000000 -Hs 13 -Hd -2 -Ni 13 -Nx 0.00 -Ny 0.00 -Nz 0.00 -Ne 3.400000 -Nl AGT -Nw --- -Ma 0 -Md 0 -Ms 0 -Mt 0 -Is 13.0 -Id 0.12 -It cbr -Il 512 -If 0 -Ii 24 -Iv 32 -Pn cbr -Pi 0 -Pf 0 -Po 0 
r -t 3.000000000 -Hs 13 -Hd -2 -Ni 13 -Nx 0.00 -Ny 0.00 -Nz 0.00 -Ne 3.400000 -Nl RTR -Nw --- -Ma 0 -Md 0 -Ms 0 -Mt 0 -Is 13.0 -Id 0.12 -It cbr -Il 512 -If 0 -Ii 24 -Iv 32 -Pn cbr -Pi 0 -Pf 0 -Po 0 
s -t 3.000000000 -Hs 14 -Hd -2 -Ni 14 -Nx 0.00 -Ny 0.00 -Nz 0.00 -Ne 3.400000 -Nl AGT -Nw --- -Ma 0 -Md 0 -Ms 0 -Mt 0 -Is 14.0 -Id 0.13 -It cbr -Il 512 -If 0 -Ii 26 -Iv 32 -Pn cbr -Pi 0 -Pf 0 -Po 0 
r -t 3.000000000 -Hs 14 -Hd -2 -Ni 14 -Nx 0.00 -Ny 0.00 -Nz 0.00 -Ne 3.400000 -Nl RTR -Nw --- -Ma 0 -Md 0 -Ms 0 -Mt 0 -Is 14.0 -Id 0.13 -It cbr -Il 512 -If 0 -Ii 26 -Iv 32 -Pn cbr -Pi 0 -Pf 0 -Po 0 
s -t 3.000000000 -Hs 15 -Hd -2 -Ni 15 -Nx 0.00 -Ny 0.00 -Nz 0.00 -Ne 3.400000 -Nl AGT -Nw --- -Ma 0 -Md 0 -Ms 0 -Mt 0 -Is 15.0 -Id 0.14 -It cbr -Il 512 -If 0 -Ii 28 -Iv 32 -Pn cbr -Pi 0 -Pf 0 -Po 0 
r -t 3.000000000 -Hs 15 -Hd -2 -Ni 15 -Nx 0.00 -Ny 0.00 -Nz 0.00 -Ne 3.400000 -Nl RTR -Nw --- -Ma 0 -Md 0 -Ms 0 -Mt 0 -Is 15.0 -Id 0.14 -It cbr -Il 512 -If 0 -Ii 28 -Iv 32 -Pn cbr -Pi 0 -Pf 0 -Po 0 
s -t 3.000000000 -Hs 16 -Hd -2 -Ni 16 -Nx 0.00 -Ny 0.00 -Nz 0.00 -Ne 3.400000 -Nl AGT -Nw --- -Ma 0 -Md 0 -Ms 0 -Mt 0 -Is 16.0 -Id 0.15 -It cbr -Il 512 -If 0 -Ii 30 -Iv 32 -Pn cbr -Pi 0 -Pf 0 -Po 0 
r -t 3.000000000 -Hs 16 -Hd -2 -Ni 16 -Nx 0.00 -Ny 0.00 -Nz 0.00 -Ne 3.400000 -Nl RTR -Nw --- -Ma 0 -Md 0 -Ms 0 -Mt 0 -Is 16.0 -Id 0.15 -It cbr -Il 512 -If 0 -Ii 30 -Iv 32 -Pn cbr -Pi 0 -Pf 0 -Po 0 
s -t 3.000000000 -Hs 17 -Hd -2 -Ni 17 -Nx 0.00 -Ny 0.00 -Nz 0.00 -Ne 3.400000 -Nl AGT -Nw --- -Ma 0 -Md 0 -Ms 0 -Mt 0 -Is 17.0 -Id 0.16 -It cbr -Il 512 -If 0 -Ii 32 -Iv 32 -Pn cbr -Pi 0 -Pf 0 -Po 0 
r -t 3.000000000 -Hs 17 -Hd -2 -Ni 17 -Nx 0.00 -Ny 0.00 -Nz 0.00 -Ne 3.400000 -Nl RTR -Nw --- -Ma 0 -Md 0 -Ms 0 -Mt 0 -Is 17.0 -Id 0.16 -It cbr -Il 512 -If 0 -Ii 32 -Iv 32 -Pn cbr -Pi 0 -Pf 0 -Po 0 
s -t 3.000000000 -Hs 18 -Hd -2 -Ni 18 -Nx 0.00 -Ny 0.00 -Nz 0.00 -Ne 3.400000 -Nl AGT -Nw --- -Ma 0 -Md 0 -Ms 0 -Mt 0 -Is 18.0 -Id 0.17 -It cbr -Il 512 -If 0 -Ii 34 -Iv 32 -Pn cbr -Pi 0 -Pf 0 -Po 0 
r -t 3.000000000 -Hs 18 -Hd -2 -Ni 18 -Nx 0.00 -Ny 0.00 -Nz 0.00 -Ne 3.400000 -Nl RTR -Nw --- -Ma 0 -Md 0 -Ms 0 -Mt 0 -Is 18.0 -Id 0.17 -It cbr -Il 512 -If 0 -Ii 34 -Iv 32 -Pn cbr -Pi 0 -Pf 0 -Po 0 
s -t 3.000000000 -Hs 19 -Hd -2 -Ni 19 -Nx 0.00 -Ny 0.00 -Nz 0.00 -Ne 3.400000 -Nl AGT -Nw --- -Ma 0 -Md 0 -Ms 0 -Mt 0 -Is 19.0 -Id 0.18 -It cbr -Il 512 -If 0 -Ii 36 -Iv 32 -Pn cbr -Pi 0 -Pf 0 -Po 0 
r -t 3.000000000 -Hs 19 -Hd -2 -Ni 19 -Nx 0.00 -Ny 0.00 -Nz 0.00 -Ne 3.400000 -Nl RTR -Nw --- -Ma 0 -Md 0 -Ms 0 -Mt 0 -Is 19.0 -Id 0.18 -It cbr -Il 512 -If 0 -Ii 36 -Iv 32 -Pn cbr -Pi 0 -Pf 0 -Po 0 
s -t 3.000103866 -Hs 16 -Hd -1 -Ni 16 -Nx 0.00 -Ny 0.00 -Nz 0.00 -Ne 3.400000 -Nl RTR -Nw --- -Ma 0 -Md 0 -Ms 0 -Mt 0 -Is 16.255 -Id 0.255 -It DSR -Il 32 -If 0 -Ii 31 -Iv 32 -P dsr -Ph 1 -Pq 1 -Ps 1 -Pp 0 -Pn 1 -Pl 0 -Pe 0->0 -Pw 0 -Pm 0 -Pc 0 -Pb 0->0 
N -t 3.000559 -n 15 -e 3.249900
N -t 3.000559 -n 14 -e 3.249900
N -t 3.000559 -n 13 -e 3.249900
N -t 3.000559 -n 12 -e 3.249900
N -t 3.000559 -n 11 -e 3.249900
N -t 3.000559 -n 10 -e 3.249900
N -t 3.000559 -n 9 -e 3.249900
N -t 3.000559 -n 8 -e 3.249900
N -t 3.000559 -n 7 -e 3.249900
N -t 3.000559 -n 6 -e 3.249900
N -t 3.000559 -n 5 -e 3.249900
N -t 3.000559 -n 17 -e 3.249900
N -t 3.000559 -n 18 -e 3.249900
N -t 3.000559 -n 19 -e 3.249900
N -t 3.000559 -n 0 -e 3.249900
N -t 3.000559 -n 1 -e 3.249900
N -t 3.000559 -n 2 -e 3.249900
N -t 3.000559 -n 3 -e 3.249900
N -t 3.000559 -n 4 -e 3.249900
r -t 3.001303866 -Hs 15 -Hd -1 -Ni 15 -Nx 0.00 -Ny 0.00 -Nz 0.00 -Ne 3.249900 -Nl RTR -Nw --- -Ma 0 -Md ffffffff -Ms 10 -Mt 800 -Is 16.255 -Id 0.255 -It DSR -Il 32 -If 0 -Ii 31 -Iv 32 -P dsr -Ph 1 -Pq 1 -Ps 1 -Pp 0 -Pn 1 -Pl 0 -Pe 0->0 -Pw 0 -Pm 0 -Pc 0 -Pb 0->0 
r -t 3.001303866 -Hs 14 -Hd -1 -Ni 14 -Nx 0.00 -Ny 0.00 -Nz 0.00 -Ne 3.249900 -Nl RTR -Nw --- -Ma 0 -Md ffffffff -Ms 10 -Mt 800 -Is 16.255 -Id 0.255 -It DSR -Il 32 -If 0 -Ii 31 -Iv 32 -P dsr -Ph 1 -Pq 1 -Ps 1 -Pp 0 -Pn 1 -Pl 0 -Pe 0->0 -Pw 0 -Pm 0 -Pc 0 -Pb 0->0 
r -t 3.001303866 -Hs 13 -Hd -1 -Ni 13 -Nx 0.00 -Ny 0.00 -Nz 0.00 -Ne 3.249900 -Nl RTR -Nw --- -Ma 0 -Md ffffffff -Ms 10 -Mt 800 -Is 16.255 -Id 0.255 -It DSR -Il 32 -If 0 -Ii 31 -Iv 32 -P dsr -Ph 1 -Pq 1 -Ps 1 -Pp 0 -Pn 1 -Pl 0 -Pe 0->0 -Pw 0 -Pm 0 -Pc 0 -Pb 0->0 
r -t 3.001303866 -Hs 12 -Hd -1 -Ni 12 -Nx 0.00 -Ny 0.00 -Nz 0.00 -Ne 3.249900 -Nl RTR -Nw --- -Ma 0 -Md ffffffff -Ms 10 -Mt 800 -Is 16.255 -Id 0.255 -It DSR -Il 32 -If 0 -Ii 31 -Iv 32 -P dsr -Ph 1 -Pq 1 -Ps 1 -Pp 0 -Pn 1 -Pl 0 -Pe 0->0 -Pw 0 -Pm 0 -Pc 0 -Pb 0->0 
r -t 3.001303866 -Hs 11 -Hd -1 -Ni 11 -Nx 0.00 -Ny 0.00 -Nz 0.00 -Ne 3.249900 -Nl RTR -Nw --- -Ma 0 -Md ffffffff -Ms 10 -Mt 800 -Is 16.255 -Id 0.255 -It DSR -Il 32 -If 0 -Ii 31 -Iv 32 -P dsr -Ph 1 -Pq 1 -Ps 1 -Pp 0 -Pn 1 -Pl 0 -Pe 0->0 -Pw 0 -Pm 0 -Pc 0 -Pb 0->0 
r -t 3.001303866 -Hs 10 -Hd -1 -Ni 10 -Nx 0.00 -Ny 0.00 -Nz 0.00 -Ne 3.249900 -Nl RTR -Nw --- -Ma 0 -Md ffffffff -Ms 10 -Mt 800 -Is 16.255 -Id 0.255 -It DSR -Il 32 -If 0 -Ii 31 -Iv 32 -P dsr -Ph 1 -Pq 1 -Ps 1 -Pp 0 -Pn 1 -Pl 0 -Pe 0->0 -Pw 0 -Pm 0 -Pc 0 -Pb 0->0 
r -t 3.001303866 -Hs 9 -Hd -1 -Ni 9 -Nx 0.00 -Ny 0.00 -Nz 0.00 -Ne 3.249900 -Nl RTR -Nw --- -Ma 0 -Md ffffffff -Ms 10 -Mt 800 -Is 16.255 -Id 0.255 -It DSR -Il 32 -If 0 -Ii 31 -Iv 32 -P dsr -Ph 1 -Pq 1 -Ps 1 -Pp 0 -Pn 1 -Pl 0 -Pe 0->0 -Pw 0 -Pm 0 -Pc 0 -Pb 0->0 
r -t 3.001303866 -Hs 8 -Hd -1 -Ni 8 -Nx 0.00 -Ny 0.00 -Nz 0.00 -Ne 3.249900 -Nl RTR -Nw --- -Ma 0 -Md ffffffff -Ms 10 -Mt 800 -Is 16.255 -Id 0.255 -It DSR -Il 32 -If 0 -Ii 31 -Iv 32 -P dsr -Ph 1 -Pq 1 -Ps 1 -Pp 0 -Pn 1 -Pl 0 -Pe 0->0 -Pw 0 -Pm 0 -Pc 0 -Pb 0->0 
r -t 3.001303866 -Hs 7 -Hd -1 -Ni 7 -Nx 0.00 -Ny 0.00 -Nz 0.00 -Ne 3.249900 -Nl RTR -Nw --- -Ma 0 -Md ffffffff -Ms 10 -Mt 800 -Is 16.255 -Id 0.255 -It DSR -Il 32 -If 0 -Ii 31 -Iv 32 -P dsr -Ph 1 -Pq 1 -Ps 1 -Pp 0 -Pn 1 -Pl 0 -Pe 0->0 -Pw 0 -Pm 0 -Pc 0 -Pb 0->0 
r -t 3.001303866 -Hs 6 -Hd -1 -Ni 6 -Nx 0.00 -Ny 0.00 -Nz 0.00 -Ne 3.249900 -Nl RTR -Nw --- -Ma 0 -Md ffffffff -Ms 10 -Mt 800 -Is 16.255 -Id 0.255 -It DSR -Il 32 -If 0 -Ii 31 -Iv 32 -P dsr -Ph 1 -Pq 1 -Ps 1 -Pp 0 -Pn 1 -Pl 0 -Pe 0->0 -Pw 0 -Pm 0 -Pc 0 -Pb 0->0 
r -t 3.001303866 -Hs 5 -Hd -1 -Ni 5 -Nx 0.00 -Ny 0.00 -Nz 0.00 -Ne 3.249900 -Nl RTR -Nw --- -Ma 0 -Md ffffffff -Ms 10 -Mt 800 -Is 16.255 -Id 0.255 -It DSR -Il 32 -If 0 -Ii 31 -Iv 32 -P dsr -Ph 1 -Pq 1 -Ps 1 -Pp 0 -Pn 1 -Pl 0 -Pe 0->0 -Pw 0 -Pm 0 -Pc 0 -Pb 0->0 
r -t 3.001303866 -Hs 17 -Hd -1 -Ni 17 -Nx 0.00 -Ny 0.00 -Nz 0.00 -Ne 3.249900 -Nl RTR -Nw --- -Ma 0 -Md ffffffff -Ms 10 -Mt 800 -Is 16.255 -Id 0.255 -It DSR -Il 32 -If 0 -Ii 31 -Iv 32 -P dsr -Ph 1 -Pq 1 -Ps 1 -Pp 0 -Pn 1 -Pl 0 -Pe 0->0 -Pw 0 -Pm 0 -Pc 0 -Pb 0->0 
r -t 3.001303866 -Hs 18 -Hd -1 -Ni 18 -Nx 0.00 -Ny 0.00 -Nz 0.00 -Ne 3.249900 -Nl RTR -Nw --- -Ma 0 -Md ffffffff -Ms 10 -Mt 800 -Is 16.255 -Id 0.255 -It DSR -Il 32 -If 0 -Ii 31 -Iv 32 -P dsr -Ph 1 -Pq 1 -Ps 1 -Pp 0 -Pn 1 -Pl 0 -Pe 0->0 -Pw 0 -Pm 0 -Pc 0 -Pb 0->0 
r -t 3.001303866 -Hs 19 -Hd -1 -Ni 19 -Nx 0.00 -Ny 0.00 -Nz 0.00 -Ne 3.249900 -Nl RTR -Nw --- -Ma 0 -Md ffffffff -Ms 10 -Mt 800 -Is 16.255 -Id 0.255 -It DSR -Il 32 -If 0 -Ii 31 -Iv 32 -P dsr -Ph 1 -Pq 1 -Ps 1 -Pp 0 -Pn 1 -Pl 0 -Pe 0->0 -Pw 0 -Pm 0 -Pc 0 -Pb 0->0 
r -t 3.001303971 -Hs 0 -Hd -1 -Ni 0 -Nx 30.00 -Ny 10.00 -Nz 0.00 -Ne 3.249900 -Nl RTR -Nw --- -Ma 0 -Md ffffffff -Ms 10 -Mt 800 -Is 16.255 -Id 0.255 -It DSR -Il 32 -If 0 -Ii 31 -Iv 32 -P dsr -Ph 1 -Pq 1 -Ps 1 -Pp 0 -Pn 1 -Pl 0 -Pe 0->0 -Pw 0 -Pm 0 -Pc 0 -Pb 0->0 
r -t 3.001304015 -Hs 1 -Hd -1 -Ni 1 -Nx 40.00 -Ny 20.00 -Nz 0.00 -Ne 3.249900 -Nl RTR -Nw --- -Ma 0 -Md ffffffff -Ms 10 -Mt 800 -Is 16.255 -Id 0.255 -It DSR -Il 32 -If 0 -Ii 31 -Iv 32 -P dsr -Ph 1 -Pq 1 -Ps 1 -Pp 0 -Pn 1 -Pl 0 -Pe 0->0 -Pw 0 -Pm 0 -Pc 0 -Pb 0->0 
r -t 3.001304060 -Hs 2 -Hd -1 -Ni 2 -Nx 50.00 -Ny 30.00 -Nz 0.00 -Ne 3.249900 -Nl RTR -Nw --- -Ma 0 -Md ffffffff -Ms 10 -Mt 800 -Is 16.255 -Id 0.255 -It DSR -Il 32 -If 0 -Ii 31 -Iv 32 -P dsr -Ph 1 -Pq 1 -Ps 1 -Pp 0 -Pn 1 -Pl 0 -Pe 0->0 -Pw 0 -Pm 0 -Pc 0 -Pb 0->0 
r -t 3.001304106 -Hs 3 -Hd -1 -Ni 3 -Nx 60.00 -Ny 40.00 -Nz 0.00 -Ne 3.249900 -Nl RTR -Nw --- -Ma 0 -Md ffffffff -Ms 10 -Mt 800 -Is 16.255 -Id 0.255 -It DSR -Il 32 -If 0 -Ii 31 -Iv 32 -P dsr -Ph 1 -Pq 1 -Ps 1 -Pp 0 -Pn 1 -Pl 0 -Pe 0->0 -Pw 0 -Pm 0 -Pc 0 -Pb 0->0 
r -t 3.001304153 -Hs 4 -Hd -1 -Ni 4 -Nx 70.00 -Ny 50.00 -Nz 0.00 -Ne 3.249900 -Nl RTR -Nw --- -Ma 0 -Md ffffffff -Ms 10 -Mt 800 -Is 16.255 -Id 0.255 -It DSR -Il 32 -If 0 -Ii 31 -Iv 32 -P dsr -Ph 1 -Pq 1 -Ps 1 -Pp 0 -Pn 1 -Pl 0 -Pe 0->0 -Pw 0 -Pm 0 -Pc 0 -Pb 0->0 
s -t 3.001458833 -Hs 17 -Hd -1 -Ni 17 -Nx 0.00 -Ny 0.00 -Nz 0.00 -Ne 3.249900 -Nl RTR -Nw --- -Ma 0 -Md 0 -Ms 0 -Mt 0 -Is 17.255 -Id 0.255 -It DSR -Il 32 -If 0 -Ii 33 -Iv 32 -P dsr -Ph 1 -Pq 1 -Ps 1 -Pp 0 -Pn 1 -Pl 0 -Pe 0->0 -Pw 0 -Pm 0 -Pc 0 -Pb 0->0 
N -t 3.001814 -n 16 -e 3.249636
N -t 3.001814 -n 15 -e 3.249801
N -t 3.001814 -n 14 -e 3.249801
N -t 3.001814 -n 13 -e 3.249801
N -t 3.001814 -n 12 -e 3.249801
N -t 3.001814 -n 11 -e 3.249801
N -t 3.001814 -n 10 -e 3.249801
N -t 3.001814 -n 9 -e 3.249801
N -t 3.001814 -n 8 -e 3.249801
N -t 3.001814 -n 7 -e 3.249801
N -t 3.001814 -n 6 -e 3.249801
N -t 3.001814 -n 5 -e 3.249801
N -t 3.001814 -n 18 -e 3.249801
N -t 3.001814 -n 19 -e 3.249801
N -t 3.001814 -n 0 -e 3.249801
N -t 3.001814 -n 1 -e 3.249801
N -t 3.001814 -n 2 -e 3.249801
N -t 3.001814 -n 3 -e 3.249801
N -t 3.001814 -n 4 -e 3.249801
s -t 3.001983789 -Hs 1 -Hd -1 -Ni 1 -Nx 40.00 -Ny 20.00 -Nz 0.00 -Ne 3.249801 -Nl RTR -Nw --- -Ma 0 -Md 0 -Ms 0 -Mt 0 -Is 1.255 -Id 0.255 -It DSR -Il 32 -If 0 -Ii 1 -Iv 32 -P dsr -Ph 1 -Pq 1 -Ps 1 -Pp 0 -Pn 1 -Pl 0 -Pe 0->0 -Pw 0 -Pm 0 -Pc 0 -Pb 0->0 
s -t 3.002086665 -Hs 12 -Hd -1 -Ni 12 -Nx 0.00 -Ny 0.00 -Nz 0.00 -Ne 3.249801 -Nl RTR -Nw --- -Ma 0 -Md 0 -Ms 0 -Mt 0 -Is 12.255 -Id 0.255 -It DSR -Il 32 -If 0 -Ii 23 -Iv 32 -P dsr -Ph 1 -Pq 1 -Ps 1 -Pp 0 -Pn 1 -Pl 0 -Pe 0->0 -Pw 0 -Pm 0 -Pc 0 -Pb 0->0 
s -t 3.002309438 -Hs 10 -Hd -1 -Ni 10 -Nx 0.00 -Ny 0.00 -Nz 0.00 -Ne 3.249801 -Nl RTR -Nw --- -Ma 0 -Md 0 -Ms 0 -Mt 0 -Is 10.255 -Id 0.255 -It DSR -Il 32 -If 0 -Ii 19 -Iv 32 -P dsr -Ph 1 -Pq 1 -Ps 1 -Pp 0 -Pn 1 -Pl 0 -Pe 0->0 -Pw 0 -Pm 0 -Pc 0 -Pb 0->0 
s -t 3.002459947 -Hs 14 -Hd -1 -Ni 14 -Nx 0.00 -Ny 0.00 -Nz 0.00 -Ne 3.249801 -Nl RTR -Nw --- -Ma 0 -Md 0 -Ms 0 -Mt 0 -Is 14.255 -Id 0.255 -It DSR -Il 32 -If 0 -Ii 27 -Iv 32 -P dsr -Ph 1 -Pq 1 -Ps 1 -Pp 0 -Pn 1 -Pl 0 -Pe 0->0 -Pw 0 -Pm 0 -Pc 0 -Pb 0->0 
r -t 3.002558833 -Hs 16 -Hd -1 -Ni 16 -Nx 0.00 -Ny 0.00 -Nz 0.00 -Ne 3.249636 -Nl RTR -Nw --- -Ma 0 -Md ffffffff -Ms 11 -Mt 800 -Is 17.255 -Id 0.255 -It DSR -Il 32 -If 0 -Ii 33 -Iv 32 -P dsr -Ph 1 -Pq 1 -Ps 1 -Pp 0 -Pn 1 -Pl 0 -Pe 0->0 -Pw 0 -Pm 0 -Pc 0 -Pb 0->0 
r -t 3.002558833 -Hs 15 -Hd -1 -Ni 15 -Nx 0.00 -Ny 0.00 -Nz 0.00 -Ne 3.249801 -Nl RTR -Nw --- -Ma 0 -Md ffffffff -Ms 11 -Mt 800 -Is 17.255 -Id 0.255 -It DSR -Il 32 -If 0 -Ii 33 -Iv 32 -P dsr -Ph 1 -Pq 1 -Ps 1 -Pp 0 -Pn 1 -Pl 0 -Pe 0->0 -Pw 0 -Pm 0 -Pc 0 -Pb 0->0 
r -t 3.002558833 -Hs 14 -Hd -1 -Ni 14 -Nx 0.00 -Ny 0.00 -Nz 0.00 -Ne 3.249801 -Nl RTR -Nw --- -Ma 0 -Md ffffffff -Ms 11 -Mt 800 -Is 17.255 -Id 0.255 -It DSR -Il 32 -If 0 -Ii 33 -Iv 32 -P dsr -Ph 1 -Pq 1 -Ps 1 -Pp 0 -Pn 1 -Pl 0 -Pe 0->0 -Pw 0 -Pm 0 -Pc 0 -Pb 0->0 
r -t 3.002558833 -Hs 13 -Hd -1 -Ni 13 -Nx 0.00 -Ny 0.00 -Nz 0.00 -Ne 3.249801 -Nl RTR -Nw --- -Ma 0 -Md ffffffff -Ms 11 -Mt 800 -Is 17.255 -Id 0.255 -It DSR -Il 32 -If 0 -Ii 33 -Iv 32 -P dsr -Ph 1 -Pq 1 -Ps 1 -Pp 0 -Pn 1 -Pl 0 -Pe 0->0 -Pw 0 -Pm 0 -Pc 0 -Pb 0->0 
r -t 3.002558833 -Hs 12 -Hd -1 -Ni 12 -Nx 0.00 -Ny 0.00 -Nz 0.00 -Ne 3.249801 -Nl RTR -Nw --- -Ma 0 -Md ffffffff -Ms 11 -Mt 800 -Is 17.255 -Id 0.255 -It DSR -Il 32 -If 0 -Ii 33 -Iv 32 -P dsr -Ph 1 -Pq 1 -Ps 1 -Pp 0 -Pn 1 -Pl 0 -Pe 0->0 -Pw 0 -Pm 0 -Pc 0 -Pb 0->0 
r -t 3.002558833 -Hs 11 -Hd -1 -Ni 11 -Nx 0.00 -Ny 0.00 -Nz 0.00 -Ne 3.249801 -Nl RTR -Nw --- -Ma 0 -Md ffffffff -Ms 11 -Mt 800 -Is 17.255 -Id 0.255 -It DSR -Il 32 -If 0 -Ii 33 -Iv 32 -P dsr -Ph 1 -Pq 1 -Ps 1 -Pp 0 -Pn 1 -Pl 0 -Pe 0->0 -Pw 0 -Pm 0 -Pc 0 -Pb 0->0 
r -t 3.002558833 -Hs 10 -Hd -1 -Ni 10 -Nx 0.00 -Ny 0.00 -Nz 0.00 -Ne 3.249801 -Nl RTR -Nw --- -Ma 0 -Md ffffffff -Ms 11 -Mt 800 -Is 17.255 -Id 0.255 -It DSR -Il 32 -If 0 -Ii 33 -Iv 32 -P dsr -Ph 1 -Pq 1 -Ps 1 -Pp 0 -Pn 1 -Pl 0 -Pe 0->0 -Pw 0 -Pm 0 -Pc 0 -Pb 0->0 
r -t 3.002558833 -Hs 9 -Hd -1 -Ni 9 -Nx 0.00 -Ny 0.00 -Nz 0.00 -Ne 3.249801 -Nl RTR -Nw --- -Ma 0 -Md ffffffff -Ms 11 -Mt 800 -Is 17.255 -Id 0.255 -It DSR -Il 32 -If 0 -Ii 33 -Iv 32 -P dsr -Ph 1 -Pq 1 -Ps 1 -Pp 0 -Pn 1 -Pl 0 -Pe 0->0 -Pw 0 -Pm 0 -Pc 0 -Pb 0->0 
r -t 3.002558833 -Hs 8 -Hd -1 -Ni 8 -Nx 0.00 -Ny 0.00 -Nz 0.00 -Ne 3.249801 -Nl RTR -Nw --- -Ma 0 -Md ffffffff -Ms 11 -Mt 800 -Is 17.255 -Id 0.255 -It DSR -Il 32 -If 0 -Ii 33 -Iv 32 -P dsr -Ph 1 -Pq 1 -Ps 1 -Pp 0 -Pn 1 -Pl 0 -Pe 0->0 -Pw 0 -Pm 0 -Pc 0 -Pb 0->0 
r -t 3.002558833 -Hs 7 -Hd -1 -Ni 7 -Nx 0.00 -Ny 0.00 -Nz 0.00 -Ne 3.249801 -Nl RTR -Nw --- -Ma 0 -Md ffffffff -Ms 11 -Mt 800 -Is 17.255 -Id 0.255 -It DSR -Il 32 -If 0 -Ii 33 -Iv 32 -P dsr -Ph 1 -Pq 1 -Ps 1 -Pp 0 -Pn 1 -Pl 0 -Pe 0->0 -Pw 0 -Pm 0 -Pc 0 -Pb 0->0 
r -t 3.002558833 -Hs 6 -Hd -1 -Ni 6 -Nx 0.00 -Ny 0.00 -Nz 0.00 -Ne 3.249801 -Nl RTR -Nw --- -Ma 0 -Md ffffffff -Ms 11 -Mt 800 -Is 17.255 -Id 0.255 -It DSR -Il 32 -If 0 -Ii 33 -Iv 32 -P dsr -Ph 1 -Pq 1 -Ps 1 -Pp 0 -Pn 1 -Pl 0 -Pe 0->0 -Pw 0 -Pm 0 -Pc 0 -Pb 0->0 
r -t 3.002558833 -Hs 5 -Hd -1 -Ni 5 -Nx 0.00 -Ny 0.00 -Nz 0.00 -Ne 3.249801 -Nl RTR -Nw --- -Ma 0 -Md ffffffff -Ms 11 -Mt 800 -Is 17.255 -Id 0.255 -It DSR -Il 32 -If 0 -Ii 33 -Iv 32 -P dsr -Ph 1 -Pq 1 -Ps 1 -Pp 0 -Pn 1 -Pl 0 -Pe 0->0 -Pw 0 -Pm 0 -Pc 0 -Pb 0->0 
r -t 3.002558833 -Hs 18 -Hd -1 -Ni 18 -Nx 0.00 -Ny 0.00 -Nz 0.00 -Ne 3.249801 -Nl RTR -Nw --- -Ma 0 -Md ffffffff -Ms 11 -Mt 800 -Is 17.255 -Id 0.255 -It DSR -Il 32 -If 0 -Ii 33 -Iv 32 -P dsr -Ph 1 -Pq 1 -Ps 1 -Pp 0 -Pn 1 -Pl 0 -Pe 0->0 -Pw 0 -Pm 0 -Pc 0 -Pb 0->0 
r -t 3.002558833 -Hs 19 -Hd -1 -Ni 19 -Nx 0.00 -Ny 0.00 -Nz 0.00 -Ne 3.249801 -Nl RTR -Nw --- -Ma 0 -Md ffffffff -Ms 11 -Mt 800 -Is 17.255 -Id 0.255 -It DSR -Il 32 -If 0 -Ii 33 -Iv 32 -P dsr -Ph 1 -Pq 1 -Ps 1 -Pp 0 -Pn 1 -Pl 0 -Pe 0->0 -Pw 0 -Pm 0 -Pc 0 -Pb 0->0 
r -t 3.002558939 -Hs 0 -Hd -1 -Ni 0 -Nx 30.00 -Ny 10.00 -Nz 0.00 -Ne 3.249801 -Nl RTR -Nw --- -Ma 0 -Md ffffffff -Ms 11 -Mt 800 -Is 17.255 -Id 0.255 -It DSR -Il 32 -If 0 -Ii 33 -Iv 32 -P dsr -Ph 1 -Pq 1 -Ps 1 -Pp 0 -Pn 1 -Pl 0 -Pe 0->0 -Pw 0 -Pm 0 -Pc 0 -Pb 0->0 
r -t 3.002558982 -Hs 1 -Hd -1 -Ni 1 -Nx 40.00 -Ny 20.00 -Nz 0.00 -Ne 3.249801 -Nl RTR -Nw --- -Ma 0 -Md ffffffff -Ms 11 -Mt 800 -Is 17.255 -Id 0.255 -It DSR -Il 32 -If 0 -Ii 33 -Iv 32 -P dsr -Ph 1 -Pq 1 -Ps 1 -Pp 0 -Pn 1 -Pl 0 -Pe 0->0 -Pw 0 -Pm 0 -Pc 0 -Pb 0->0 
r -t 3.002559028 -Hs 2 -Hd -1 -Ni 2 -Nx 50.00 -Ny 30.00 -Nz 0.00 -Ne 3.249801 -Nl RTR -Nw --- -Ma 0 -Md ffffffff -Ms 11 -Mt 800 -Is 17.255 -Id 0.255 -It DSR -Il 32 -If 0 -Ii 33 -Iv 32 -P dsr -Ph 1 -Pq 1 -Ps 1 -Pp 0 -Pn 1 -Pl 0 -Pe 0->0 -Pw 0 -Pm 0 -Pc 0 -Pb 0->0 
r -t 3.002559074 -Hs 3 -Hd -1 -Ni 3 -Nx 60.00 -Ny 40.00 -Nz 0.00 -Ne 3.249801 -Nl RTR -Nw --- -Ma 0 -Md ffffffff -Ms 11 -Mt 800 -Is 17.255 -Id 0.255 -It DSR -Il 32 -If 0 -Ii 33 -Iv 32 -P dsr -Ph 1 -Pq 1 -Ps 1 -Pp 0 -Pn 1 -Pl 0 -Pe 0->0 -Pw 0 -Pm 0 -Pc 0 -Pb 0->0 
r -t 3.002559120 -Hs 4 -Hd -1 -Ni 4 -Nx 70.00 -Ny 50.00 -Nz 0.00 -Ne 3.249801 -Nl RTR -Nw --- -Ma 0 -Md ffffffff -Ms 11 -Mt 800 -Is 17.255 -Id 0.255 -It DSR -Il 32 -If 0 -Ii 33 -Iv 32 -P dsr -Ph 1 -Pq 1 -Ps 1 -Pp 0 -Pn 1 -Pl 0 -Pe 0->0 -Pw 0 -Pm 0 -Pc 0 -Pb 0->0 
N -t 3.002584 -n 11 -e 3.249727
N -t 3.002584 -n 10 -e 3.249727
N -t 3.002584 -n 9 -e 3.249727
N -t 3.002584 -n 8 -e 3.249727
N -t 3.002584 -n 7 -e 3.249727
N -t 3.002584 -n 6 -e 3.249727
N -t 3.002584 -n 5 -e 3.249727
N -t 3.002584 -n 13 -e 3.249727
N -t 3.002584 -n 14 -e 3.249727
N -t 3.002584 -n 15 -e 3.249727
N -t 3.002584 -n 16 -e 3.249561
N -t 3.002584 -n 17 -e 3.249561
N -t 3.002584 -n 18 -e 3.249727
N -t 3.002584 -n 19 -e 3.249727
N -t 3.002584 -n 0 -e 3.249727
N -t 3.002584 -n 1 -e 3.249727
N -t 3.002584 -n 2 -e 3.249727
N -t 3.002584 -n 3 -e 3.249727
N -t 3.002584 -n 4 -e 3.249727
r -t 3.003328833 -Hs 11 -Hd -1 -Ni 11 -Nx 0.00 -Ny 0.00 -Nz 0.00 -Ne 3.249727 -Nl RTR -Nw --- -Ma 0 -Md ffffffff -Ms c -Mt 800 -Is 12.255 -Id 0.255 -It DSR -Il 32 -If 0 -Ii 23 -Iv 32 -P dsr -Ph 1 -Pq 1 -Ps 1 -Pp 0 -Pn 1 -Pl 0 -Pe 0->0 -Pw 0 -Pm 0 -Pc 0 -Pb 0->0 
r -t 3.003328833 -Hs 10 -Hd -1 -Ni 10 -Nx 0.00 -Ny 0.00 -Nz 0.00 -Ne 3.249727 -Nl RTR -Nw --- -Ma 0 -Md ffffffff -Ms c -Mt 800 -Is 12.255 -Id 0.255 -It DSR -Il 32 -If 0 -Ii 23 -Iv 32 -P dsr -Ph 1 -Pq 1 -Ps 1 -Pp 0 -Pn 1 -Pl 0 -Pe 0->0 -Pw 0 -Pm 0 -Pc 0 -Pb 0->0 
r -t 3.003328833 -Hs 9 -Hd -1 -Ni 9 -Nx 0.00 -Ny 0.00 -Nz 0.00 -Ne 3.249727 -Nl RTR -Nw --- -Ma 0 -Md ffffffff -Ms c -Mt 800 -Is 12.255 -Id 0.255 -It DSR -Il 32 -If 0 -Ii 23 -Iv 32 -P dsr -Ph 1 -Pq 1 -Ps 1 -Pp 0 -Pn 1 -Pl 0 -Pe 0->0 -Pw 0 -Pm 0 -Pc 0 -Pb 0->0 
r -t 3.003328833 -Hs 8 -Hd -1 -Ni 8 -Nx 0.00 -Ny 0.00 -Nz 0.00 -Ne 3.249727 -Nl RTR -Nw --- -Ma 0 -Md ffffffff -Ms c -Mt 800 -Is 12.255 -Id 0.255 -It DSR -Il 32 -If 0 -Ii 23 -Iv 32 -P dsr -Ph 1 -Pq 1 -Ps 1 -Pp 0 -Pn 1 -Pl 0 -Pe 0->0 -Pw 0 -Pm 0 -Pc 0 -Pb 0->0 
r -t 3.003328833 -Hs 7 -Hd -1 -Ni 7 -Nx 0.00 -Ny 0.00 -Nz 0.00 -Ne 3.249727 -Nl RTR -Nw --- -Ma 0 -Md ffffffff -Ms c -Mt 800 -Is 12.255 -Id 0.255 -It DSR -Il 32 -If 0 -Ii 23 -Iv 32 -P dsr -Ph 1 -Pq 1 -Ps 1 -Pp 0 -Pn 1 -Pl 0 -Pe 0->0 -Pw 0 -Pm 0 -Pc 0 -Pb 0->0 
r -t 3.003328833 -Hs 6 -Hd -1 -Ni 6 -Nx 0.00 -Ny 0.00 -Nz 0.00 -Ne 3.249727 -Nl RTR -Nw --- -Ma 0 -Md ffffffff -Ms c -Mt 800 -Is 12.255 -Id 0.255 -It DSR -Il 32 -If 0 -Ii 23 -Iv 32 -P dsr -Ph 1 -Pq 1 -Ps 1 -Pp 0 -Pn 1 -Pl 0 -Pe 0->0 -Pw 0 -Pm 0 -Pc 0 -Pb 0->0 
r -t 3.003328833 -Hs 5 -Hd -1 -Ni 5 -Nx 0.00 -Ny 0.00 -Nz 0.00 -Ne 3.249727 -Nl RTR -Nw --- -Ma 0 -Md ffffffff -Ms c -Mt 800 -Is 12.255 -Id 0.255 -It DSR -Il 32 -If 0 -Ii 23 -Iv 32 -P dsr -Ph 1 -Pq 1 -Ps 1 -Pp 0 -Pn 1 -Pl 0 -Pe 0->0 -Pw 0 -Pm 0 -Pc 0 -Pb 0->0 
r -t 3.003328833 -Hs 13 -Hd -1 -Ni 13 -Nx 0.00 -Ny 0.00 -Nz 0.00 -Ne 3.249727 -Nl RTR -Nw --- -Ma 0 -Md ffffffff -Ms c -Mt 800 -Is 12.255 -Id 0.255 -It DSR -Il 32 -If 0 -Ii 23 -Iv 32 -P dsr -Ph 1 -Pq 1 -Ps 1 -Pp 0 -Pn 1 -Pl 0 -Pe 0->0 -Pw 0 -Pm 0 -Pc 0 -Pb 0->0 
r -t 3.003328833 -Hs 14 -Hd -1 -Ni 14 -Nx 0.00 -Ny 0.00 -Nz 0.00 -Ne 3.249727 -Nl RTR -Nw --- -Ma 0 -Md ffffffff -Ms c -Mt 800 -Is 12.255 -Id 0.255 -It DSR -Il 32 -If 0 -Ii 23 -Iv 32 -P dsr -Ph 1 -Pq 1 -Ps 1 -Pp 0 -Pn 1 -Pl 0 -Pe 0->0 -Pw 0 -Pm 0 -Pc 0 -Pb 0->0 
r -t 3.003328833 -Hs 15 -Hd -1 -Ni 15 -Nx 0.00 -Ny 0.00 -Nz 0.00 -Ne 3.249727 -Nl RTR -Nw --- -Ma 0 -Md ffffffff -Ms c -Mt 800 -Is 12.255 -Id 0.255 -It DSR -Il 32 -If 0 -Ii 23 -Iv 32 -P dsr -Ph 1 -Pq 1 -Ps 1 -Pp 0 -Pn 1 -Pl 0 -Pe 0->0 -Pw 0 -Pm 0 -Pc 0 -Pb 0->0 
r -t 3.003328833 -Hs 16 -Hd -1 -Ni 16 -Nx 0.00 -Ny 0.00 -Nz 0.00 -Ne 3.249561 -Nl RTR -Nw --- -Ma 0 -Md ffffffff -Ms c -Mt 800 -Is 12.255 -Id 0.255 -It DSR -Il 32 -If 0 -Ii 23 -Iv 32 -P dsr -Ph 1 -Pq 1 -Ps 1 -Pp 0 -Pn 1 -Pl 0 -Pe 0->0 -Pw 0 -Pm 0 -Pc 0 -Pb 0->0 
r -t 3.003328833 -Hs 17 -Hd -1 -Ni 17 -Nx 0.00 -Ny 0.00 -Nz 0.00 -Ne 3.249561 -Nl RTR -Nw --- -Ma 0 -Md ffffffff -Ms c -Mt 800 -Is 12.255 -Id 0.255 -It DSR -Il 32 -If 0 -Ii 23 -Iv 32 -P dsr -Ph 1 -Pq 1 -Ps 1 -Pp 0 -Pn 1 -Pl 0 -Pe 0->0 -Pw 0 -Pm 0 -Pc 0 -Pb 0->0 
r -t 3.003328833 -Hs 18 -Hd -1 -Ni 18 -Nx 0.00 -Ny 0.00 -Nz 0.00 -Ne 3.249727 -Nl RTR -Nw --- -Ma 0 -Md ffffffff -Ms c -Mt 800 -Is 12.255 -Id 0.255 -It DSR -Il 32 -If 0 -Ii 23 -Iv 32 -P dsr -Ph 1 -Pq 1 -Ps 1 -Pp 0 -Pn 1 -Pl 0 -Pe 0->0 -Pw 0 -Pm 0 -Pc 0 -Pb 0->0 
r -t 3.003328833 -Hs 19 -Hd -1 -Ni 19 -Nx 0.00 -Ny 0.00 -Nz 0.00 -Ne 3.249727 -Nl RTR -Nw --- -Ma 0 -Md ffffffff -Ms c -Mt 800 -Is 12.255 -Id 0.255 -It DSR -Il 32 -If 0 -Ii 23 -Iv 32 -P dsr -Ph 1 -Pq 1 -Ps 1 -Pp 0 -Pn 1 -Pl 0 -Pe 0->0 -Pw 0 -Pm 0 -Pc 0 -Pb 0->0 
r -t 3.003328939 -Hs 0 -Hd -1 -Ni 0 -Nx 30.00 -Ny 10.00 -Nz 0.00 -Ne 3.249727 -Nl RTR -Nw --- -Ma 0 -Md ffffffff -Ms c -Mt 800 -Is 12.255 -Id 0.255 -It DSR -Il 32 -If 0 -Ii 23 -Iv 32 -P dsr -Ph 1 -Pq 1 -Ps 1 -Pp 0 -Pn 1 -Pl 0 -Pe 0->0 -Pw 0 -Pm 0 -Pc 0 -Pb 0->0 
r -t 3.003328982 -Hs 1 -Hd -1 -Ni 1 -Nx 40.00 -Ny 20.00 -Nz 0.00 -Ne 3.249727 -Nl RTR -Nw --- -Ma 0 -Md ffffffff -Ms c -Mt 800 -Is 12.255 -Id 0.255 -It DSR -Il 32 -If 0 -Ii 23 -Iv 32 -P dsr -Ph 1 -Pq 1 -Ps 1 -Pp 0 -Pn 1 -Pl 0 -Pe 0->0 -Pw 0 -Pm 0 -Pc 0 -Pb 0->0 
r -t 3.003329028 -Hs 2 -Hd -1 -Ni 2 -Nx 50.00 -Ny 30.00 -Nz 0.00 -Ne 3.249727 -Nl RTR -Nw --- -Ma 0 -Md ffffffff -Ms c -Mt 800 -Is 12.255 -Id 0.255 -It DSR -Il 32 -If 0 -Ii 23 -Iv 32 -P dsr -Ph 1 -Pq 1 -Ps 1 -Pp 0 -Pn 1 -Pl 0 -Pe 0->0 -Pw 0 -Pm 0 -Pc 0 -Pb 0->0 
r -t 3.003329074 -Hs 3 -Hd -1 -Ni 3 -Nx 60.00 -Ny 40.00 -Nz 0.00 -Ne 3.249727 -Nl RTR -Nw --- -Ma 0 -Md ffffffff -Ms c -Mt 800 -Is 12.255 -Id 0.255 -It DSR -Il 32 -If 0 -Ii 23 -Iv 32 -P dsr -Ph 1 -Pq 1 -Ps 1 -Pp 0 -Pn 1 -Pl 0 -Pe 0->0 -Pw 0 -Pm 0 -Pc 0 -Pb 0->0 
r -t 3.003329120 -Hs 4 -Hd -1 -Ni 4 -Nx 70.00 -Ny 50.00 -Nz 0.00 -Ne 3.249727 -Nl RTR -Nw --- -Ma 0 -Md ffffffff -Ms c -Mt 800 -Is 12.255 -Id 0.255 -It DSR -Il 32 -If 0 -Ii 23 -Iv 32 -P dsr -Ph 1 -Pq 1 -Ps 1 -Pp 0 -Pn 1 -Pl 0 -Pe 0->0 -Pw 0 -Pm 0 -Pc 0 -Pb 0->0 
N -t 3.003554 -n 9 -e 3.249642
N -t 3.003554 -n 8 -e 3.249642
N -t 3.003554 -n 7 -e 3.249642
N -t 3.003554 -n 6 -e 3.249642
N -t 3.003554 -n 5 -e 3.249642
N -t 3.003554 -n 11 -e 3.249642
N -t 3.003554 -n 12 -e 3.249477
N -t 3.003554 -n 13 -e 3.249642
N -t 3.003554 -n 14 -e 3.249642
N -t 3.003554 -n 15 -e 3.249642
N -t 3.003554 -n 16 -e 3.249477
N -t 3.003554 -n 17 -e 3.249477
N -t 3.003554 -n 18 -e 3.249642
N -t 3.003554 -n 19 -e 3.249642
N -t 3.003554 -n 0 -e 3.249642
N -t 3.003554 -n 1 -e 3.249642
N -t 3.003554 -n 2 -e 3.249642
N -t 3.003554 -n 3 -e 3.249642
N -t 3.003554 -n 4 -e 3.249642
s -t 3.003628209 -Hs 9 -Hd -1 -Ni 9 -Nx 0.00 -Ny 0.00 -Nz 0.00 -Ne 3.249642 -Nl RTR -Nw --- -Ma 0 -Md 0 -Ms 0 -Mt 0 -Is 9.255 -Id 0.255 -It DSR -Il 32 -If 0 -Ii 17 -Iv 32 -P dsr -Ph 1 -Pq 1 -Ps 1 -Pp 0 -Pn 1 -Pl 0 -Pe 0->0 -Pw 0 -Pm 0 -Pc 0 -Pb 0->0 
r -t 3.004298833 -Hs 9 -Hd -1 -Ni 9 -Nx 0.00 -Ny 0.00 -Nz 0.00 -Ne 3.249642 -Nl RTR -Nw --- -Ma 0 -Md ffffffff -Ms a -Mt 800 -Is 10.255 -Id 0.255 -It DSR -Il 32 -If 0 -Ii 19 -Iv 32 -P dsr -Ph 1 -Pq 1 -Ps 1 -Pp 0 -Pn 1 -Pl 0 -Pe 0->0 -Pw 0 -Pm 0 -Pc 0 -Pb 0->0 
r -t 3.004298833 -Hs 8 -Hd -1 -Ni 8 -Nx 0.00 -Ny 0.00 -Nz 0.00 -Ne 3.249642 -Nl RTR -Nw --- -Ma 0 -Md ffffffff -Ms a -Mt 800 -Is 10.255 -Id 0.255 -It DSR -Il 32 -If 0 -Ii 19 -Iv 32 -P dsr -Ph 1 -Pq 1 -Ps 1 -Pp 0 -Pn 1 -Pl 0 -Pe 0->0 -Pw 0 -Pm 0 -Pc 0 -Pb 0->0 
r -t 3.004298833 -Hs 7 -Hd -1 -Ni 7 -Nx 0.00 -Ny 0.00 -Nz 0.00 -Ne 3.249642 -Nl RTR -Nw --- -Ma 0 -Md ffffffff -Ms a -Mt 800 -Is 10.255 -Id 0.255 -It DSR -Il 32 -If 0 -Ii 19 -Iv 32 -P dsr -Ph 1 -Pq 1 -Ps 1 -Pp 0 -Pn 1 -Pl 0 -Pe 0->0 -Pw 0 -Pm 0 -Pc 0 -Pb 0->0 
r -t 3.004298833 -Hs 6 -Hd -1 -Ni 6 -Nx 0.00 -Ny 0.00 -Nz 0.00 -Ne 3.249642 -Nl RTR -Nw --- -Ma 0 -Md ffffffff -Ms a -Mt 800 -Is 10.255 -Id 0.255 -It DSR -Il 32 -If 0 -Ii 19 -Iv 32 -P dsr -Ph 1 -Pq 1 -Ps 1 -Pp 0 -Pn 1 -Pl 0 -Pe 0->0 -Pw 0 -Pm 0 -Pc 0 -Pb 0->0 
r -t 3.004298833 -Hs 5 -Hd -1 -Ni 5 -Nx 0.00 -Ny 0.00 -Nz 0.00 -Ne 3.249642 -Nl RTR -Nw --- -Ma 0 -Md ffffffff -Ms a -Mt 800 -Is 10.255 -Id 0.255 -It DSR -Il 32 -If 0 -Ii 19 -Iv 32 -P dsr -Ph 1 -Pq 1 -Ps 1 -Pp 0 -Pn 1 -Pl 0 -Pe 0->0 -Pw 0 -Pm 0 -Pc 0 -Pb 0->0 
r -t 3.004298833 -Hs 11 -Hd -1 -Ni 11 -Nx 0.00 -Ny 0.00 -Nz 0.00 -Ne 3.249642 -Nl RTR -Nw --- -Ma 0 -Md ffffffff -Ms a -Mt 800 -Is 10.255 -Id 0.255 -It DSR -Il 32 -If 0 -Ii 19 -Iv 32 -P dsr -Ph 1 -Pq 1 -Ps 1 -Pp 0 -Pn 1 -Pl 0 -Pe 0->0 -Pw 0 -Pm 0 -Pc 0 -Pb 0->0 
r -t 3.004298833 -Hs 12 -Hd -1 -Ni 12 -Nx 0.00 -Ny 0.00 -Nz 0.00 -Ne 3.249477 -Nl RTR -Nw --- -Ma 0 -Md ffffffff -Ms a -Mt 800 -Is 10.255 -Id 0.255 -It DSR -Il 32 -If 0 -Ii 19 -Iv 32 -P dsr -Ph 1 -Pq 1 -Ps 1 -Pp 0 -Pn 1 -Pl 0 -Pe 0->0 -Pw 0 -Pm 0 -Pc 0 -Pb 0->0 
r -t 3.004298833 -Hs 13 -Hd -1 -Ni 13 -Nx 0.00 -Ny 0.00 -Nz 0.00 -Ne 3.249642 -Nl RTR -Nw --- -Ma 0 -Md ffffffff -Ms a -Mt 800 -Is 10.255 -Id 0.255 -It DSR -Il 32 -If 0 -Ii 19 -Iv 32 -P dsr -Ph 1 -Pq 1 -Ps 1 -Pp 0 -Pn 1 -Pl 0 -Pe 0->0 -Pw 0 -Pm 0 -Pc 0 -Pb 0->0 
r -t 3.004298833 -Hs 14 -Hd -1 -Ni 14 -Nx 0.00 -Ny 0.00 -Nz 0.00 -Ne 3.249642 -Nl RTR -Nw --- -Ma 0 -Md ffffffff -Ms a -Mt 800 -Is 10.255 -Id 0.255 -It DSR -Il 32 -If 0 -Ii 19 -Iv 32 -P dsr -Ph 1 -Pq 1 -Ps 1 -Pp 0 -Pn 1 -Pl 0 -Pe 0->0 -Pw 0 -Pm 0 -Pc 0 -Pb 0->0 
r -t 3.004298833 -Hs 15 -Hd -1 -Ni 15 -Nx 0.00 -Ny 0.00 -Nz 0.00 -Ne 3.249642 -Nl RTR -Nw --- -Ma 0 -Md ffffffff -Ms a -Mt 800 -Is 10.255 -Id 0.255 -It DSR -Il 32 -If 0 -Ii 19 -Iv 32 -P dsr -Ph 1 -Pq 1 -Ps 1 -Pp 0 -Pn 1 -Pl 0 -Pe 0->0 -Pw 0 -Pm 0 -Pc 0 -Pb 0->0 
r -t 3.004298833 -Hs 16 -Hd -1 -Ni 16 -Nx 0.00 -Ny 0.00 -Nz 0.00 -Ne 3.249477 -Nl RTR -Nw --- -Ma 0 -Md ffffffff -Ms a -Mt 800 -Is 10.255 -Id 0.255 -It DSR -Il 32 -If 0 -Ii 19 -Iv 32 -P dsr -Ph 1 -Pq 1 -Ps 1 -Pp 0 -Pn 1 -Pl 0 -Pe 0->0 -Pw 0 -Pm 0 -Pc 0 -Pb 0->0 