+ 0.1 3 0 cbr 1000 ------- 2 3.0 5.0 0 0
- 0.1 3 0 cbr 1000 ------- 2 3.0 5.0 0 0
r 0.1058 3 0 cbr 1000 ------- 2 3.0 5.0 0 0
+ 0.1058 0 1 cbr 1000 ------- 2 3.0 5.0 0 0
- 0.1058 0 1 cbr 1000 ------- 2 3.0 5.0 0 0
+ 0.108 3 0 cbr 1000 ------- 2 3.0 5.0 1 1
- 0.108 3 0 cbr 1000 ------- 2 3.0 5.0 1 1
r 0.1116 0 1 cbr 1000 ------- 2 3.0 5.0 0 0
+ 0.1116 1 5 cbr 1000 ------- 2 3.0 5.0 0 0
- 0.1116 1 5 cbr 1000 ------- 2 3.0 5.0 0 0
r 0.1138 3 0 cbr 1000 ------- 2 3.0 5.0 1 1
+ 0.1138 0 1 cbr 1000 ------- 2 3.0 5.0 1 1
- 0.1138 0 1 cbr 1000 ------- 2 3.0 5.0 1 1
+ 0.116 3 0 cbr 1000 ------- 2 3.0 5.0 2 2
- 0.116 3 0 cbr 1000 ------- 2 3.0 5.0 2 2
r 0.1174 1 5 cbr 1000 ------- 2 3.0 5.0 0 0
r 0.1196 0 1 cbr 1000 ------- 2 3.0 5.0 1 1
+ 0.1196 1 5 cbr 1000 ------- 2 3.0 5.0 1 1
- 0.1196 1 5 cbr 1000 ------- 2 3.0 5.0 1 1
r 0.1218 3 0 cbr 1000 ------- 2 3.0 5.0 2 2
+ 0.1218 0 1 cbr 1000 ------- 2 3.0 5.0 2 2
- 0.1218 0 1 cbr 1000 ------- 2 3.0 5.0 2 2
+ 0.124 3 0 cbr 1000 ------- 2 3.0 5.0 3 3
- 0.124 3 0 cbr 1000 ------- 2 3.0 5.0 3 3
r 0.1254 1 5 cbr 1000 ------- 2 3.0 5.0 1 1
r 0.1276 0 1 cbr 1000 ------- 2 3.0 5.0 2 2
+ 0.1276 1 5 cbr 1000 ------- 2 3.0 5.0 2 2
- 0.1276 1 5 cbr 1000 ------- 2 3.0 5.0 2 2
r 0.1298 3 0 cbr 1000 ------- 2 3.0 5.0 3 3
+ 0.1298 0 1 cbr 1000 ------- 2 3.0 5.0 3 3
- 0.1298 0 1 cbr 1000 ------- 2 3.0 5.0 3 3
+ 0.132 3 0 cbr 1000 ------- 2 3.0 5.0 4 4
- 0.132 3 0 cbr 1000 ------- 2 3.0 5.0 4 4
r 0.1334 1 5 cbr 1000 ------- 2 3.0 5.0 2 2
r 0.1356 0 1 cbr 1000 ------- 2 3.0 5.0 3 3
+ 0.1356 1 5 cbr 1000 ------- 2 3.0 5.0 3 3
- 0.1356 1 5 cbr 1000 ------- 2 3.0 5.0 3 3
r 0.1378 3 0 cbr 1000 ------- 2 3.0 5.0 4 4
+ 0.1378 0 1 cbr 1000 ------- 2 3.0 5.0 4 4
- 0.1378 0 1 cbr 1000 ------- 2 3.0 5.0 4 4
+ 0.14 3 0 cbr 1000 ------- 2 3.0 5.0 5 5
- 0.14 3 0 cbr 1000 ------- 2 3.0 5.0 5 5
r 0.1414 1 5 cbr 1000 ------- 2 3.0 5.0 3 3
r 0.1436 0 1 cbr 1000 ------- 2 3.0 5.0 4 4
+ 0.1436 1 5 cbr 1000 ------- 2 3.0 5.0 4 4
- 0.1436 1 5 cbr 1000 ------- 2 3.0 5.0 4 4
r 0.1458 3 0 cbr 1000 ------- 2 3.0 5.0 5 5
+ 0.1458 0 1 cbr 1000 ------- 2 3.0 5.0 5 5
- 0.1458 0 1 cbr 1000 ------- 2 3.0 5.0 5 5
+ 0.148 3 0 cbr 1000 ------- 2 3.0 5.0 6 6
- 0.148 3 0 cbr 1000 ------- 2 3.0 5.0 6 6
r 0.1494 1 5 cbr 1000 ------- 2 3.0 5.0 4 4
r 0.1516 0 1 cbr 1000 ------- 2 3.0 5.0 5 5
+ 0.1516 1 5 cbr 1000 ------- 2 3.0 5.0 5 5
- 0.1516 1 5 cbr 1000 ------- 2 3.0 5.0 5 5
r 0.1538 3 0 cbr 1000 ------- 2 3.0 5.0 6 6
+ 0.1538 0 1 cbr 1000 ------- 2 3.0 5.0 6 6
- 0.1538 0 1 cbr 1000 ------- 2 3.0 5.0 6 6
+ 0.156 3 0 cbr 1000 ------- 2 3.0 5.0 7 7
- 0.156 3 0 cbr 1000 ------- 2 3.0 5.0 7 7
r 0.1574 1 5 cbr 1000 ------- 2 3.0 5.0 5 5
r 0.1596 0 1 cbr 1000 ------- 2 3.0 5.0 6 6
+ 0.1596 1 5 cbr 1000 ------- 2 3.0 5.0 6 6
- 0.1596 1 5 cbr 1000 ------- 2 3.0 5.0 6 6
r 0.1618 3 0 cbr 1000 ------- 2 3.0 5.0 7 7
+ 0.1618 0 1 cbr 1000 ------- 2 3.0 5.0 7 7
- 0.1618 0 1 cbr 1000 ------- 2 3.0 5.0 7 7
+ 0.164 3 0 cbr 1000 ------- 2 3.0 5.0 8 8
- 0.164 3 0 cbr 1000 ------- 2 3.0 5.0 8 8
r 0.1654 1 5 cbr 1000 ------- 2 3.0 5.0 6 6
r 0.1676 0 1 cbr 1000 ------- 2 3.0 5.0 7 7
+ 0.1676 1 5 cbr 1000 ------- 2 3.0 5.0 7 7
- 0.1676 1 5 cbr 1000 ------- 2 3.0 5.0 7 7
r 0.1698 3 0 cbr 1000 ------- 2 3.0 5.0 8 8
+ 0.1698 0 1 cbr 1000 ------- 2 3.0 5.0 8 8
- 0.1698 0 1 cbr 1000 ------- 2 3.0 5.0 8 8
+ 0.172 3 0 cbr 1000 ------- 2 3.0 5.0 9 9
- 0.172 3 0 cbr 1000 ------- 2 3.0 5.0 9 9
r 0.1734 1 5 cbr 1000 ------- 2 3.0 5.0 7 7
r 0.1756 0 1 cbr 1000 ------- 2 3.0 5.0 8 8
+ 0.1756 1 5 cbr 1000 ------- 2 3.0 5.0 8 8
- 0.1756 1 5 cbr 1000 ------- 2 3.0 5.0 8 8
r 0.1778 3 0 cbr 1000 ------- 2 3.0 5.0 9 9
+ 0.1778 0 1 cbr 1000 ------- 2 3.0 5.0 9 9
- 0.1778 0 1 cbr 1000 ------- 2 3.0 5.0 9 9
+ 0.18 3 0 cbr 1000 ------- 2 3.0 5.0 10 10
- 0.18 3 0 cbr 1000 ------- 2 3.0 5.0 10 10
r 0.1814 1 5 cbr 1000 ------- 2 3.0 5.0 8 8
r 0.1836 0 1 cbr 1000 ------- 2 3.0 5.0 9 9
+ 0.1836 1 5 cbr 1000 ------- 2 3.0 5.0 9 9
- 0.1836 1 5 cbr 1000 ------- 2 3.0 5.0 9 9
r 0.1858 3 0 cbr 1000 ------- 2 3.0 5.0 10 10
+ 0.1858 0 1 cbr 1000 ------- 2 3.0 5.0 10 10
- 0.1858 0 1 cbr 1000 ------- 2 3.0 5.0 10 10
+ 0.188 3 0 cbr 1000 ------- 2 3.0 5.0 11 11
- 0.188 3 0 cbr 1000 ------- 2 3.0 5.0 11 11
r 0.1894 1 5 cbr 1000 ------- 2 3.0 5.0 9 9
r 0.1916 0 1 cbr 1000 ------- 2 3.0 5.0 10 10
+ 0.1916 1 5 cbr 1000 ------- 2 3.0 5.0 10 10
- 0.1916 1 5 cbr 1000 ------- 2 3.0 5.0 10 10
r 0.1938 3 0 cbr 1000 ------- 2 3.0 5.0 11 11
+ 0.1938 0 1 cbr 1000 ------- 2 3.0 5.0 11 11
- 0.1938 0 1 cbr 1000 ------- 2 3.0 5.0 11 11
+ 0.196 3 0 cbr 1000 ------- 2 3.0 5.0 12 12
- 0.196 3 0 cbr 1000 ------- 2 3.0 5.0 12 12
r 0.1974 1 5 cbr 1000 ------- 2 3.0 5.0 10 10
r 0.1996 0 1 cbr 1000 ------- 2 3.0 5.0 11 11
+ 0.1996 1 5 cbr 1000 ------- 2 3.0 5.0 11 11
- 0.1996 1 5 cbr 1000 ------- 2 3.0 5.0 11 11
r 0.2018 3 0 cbr 1000 ------- 2 3.0 5.0 12 12
+ 0.2018 0 1 cbr 1000 ------- 2 3.0 5.0 12 12
- 0.2018 0 1 cbr 1000 ------- 2 3.0 5.0 12 12
+ 0.204 3 0 cbr 1000 ------- 2 3.0 5.0 13 13
- 0.204 3 0 cbr 1000 ------- 2 3.0 5.0 13 13
r 0.2054 1 5 cbr 1000 ------- 2 3.0 5.0 11 11
r 0.2076 0 1 cbr 1000 ------- 2 3.0 5.0 12 12
+ 0.2076 1 5 cbr 1000 ------- 2 3.0 5.0 12 12
- 0.2076 1 5 cbr 1000 ------- 2 3.0 5.0 12 12
r 0.2098 3 0 cbr 1000 ------- 2 3.0 5.0 13 13
+ 0.2098 0 1 cbr 1000 ------- 2 3.0 5.0 13 13
- 0.2098 0 1 cbr 1000 ------- 2 3.0 5.0 13 13
+ 0.212 3 0 cbr 1000 ------- 2 3.0 5.0 14 14
- 0.212 3 0 cbr 1000 ------- 2 3.0 5.0 14 14
r 0.2134 1 5 cbr 1000 ------- 2 3.0 5.0 12 12
r 0.2156 0 1 cbr 1000 ------- 2 3.0 5.0 13 13
+ 0.2156 1 5 cbr 1000 ------- 2 3.0 5.0 13 13
- 0.2156 1 5 cbr 1000 ------- 2 3.0 5.0 13 13
r 0.2178 3 0 cbr 1000 ------- 2 3.0 5.0 14 14
+ 0.2178 0 1 cbr 1000 ------- 2 3.0 5.0 14 14
- 0.2178 0 1 cbr 1000 ------- 2 3.0 5.0 14 14
+ 0.22 3 0 cbr 1000 ------- 2 3.0 5.0 15 15
- 0.22 3 0 cbr 1000 ------- 2 3.0 5.0 15 15
r 0.2214 1 5 cbr 1000 ------- 2 3.0 5.0 13 13
r 0.2236 0 1 cbr 1000 ------- 2 3.0 5.0 14 14
+ 0.2236 1 5 cbr 1000 ------- 2 3.0 5.0 14 14
- 0.2236 1 5 cbr 1000 ------- 2 3.0 5.0 14 14
r 0.2258 3 0 cbr 1000 ------- 2 3.0 5.0 15 15
+ 0.2258 0 1 cbr 1000 ------- 2 3.0 5.0 15 15
- 0.2258 0 1 cbr 1000 ------- 2 3.0 5.0 15 15
+ 0.228 3 0 cbr 1000 ------- 2 3.0 5.0 16 16
- 0.228 3 0 cbr 1000 ------- 2 3.0 5.0 16 16
r 0.2294 1 5 cbr 1000 ------- 2 3.0 5.0 14 14
r 0.2316 0 1 cbr 1000 ------- 2 3.0 5.0 15 15
+ 0.2316 1 5 cbr 1000 ------- 2 3.0 5.0 15 15
- 0.2316 1 5 cbr 1000 ------- 2 3.0 5.0 15 15
r 0.2338 3 0 cbr 1000 ------- 2 3.0 5.0 16 16
+ 0.2338 0 1 cbr 1000 ------- 2 3.0 5.0 16 16
- 0.2338 0 1 cbr 1000 ------- 2 3.0 5.0 16 16
+ 0.236 3 0 cbr 1000 ------- 2 3.0 5.0 17 17
- 0.236 3 0 cbr 1000 ------- 2 3.0 5.0 17 17
r 0.2374 1 5 cbr 1000 ------- 2 3.0 5.0 15 15
r 0.2396 0 1 cbr 1000 ------- 2 3.0 5.0 16 16
+ 0.2396 1 5 cbr 1000 ------- 2 3.0 5.0 16 16
- 0.2396 1 5 cbr 1000 ------- 2 3.0 5.0 16 16
r 0.2418 3 0 cbr 1000 ------- 2 3.0 5.0 17 17
+ 0.2418 0 1 cbr 1000 ------- 2 3.0 5.0 17 17
- 0.2418 0 1 cbr 1000 ------- 2 3.0 5.0 17 17
+ 0.244 3 0 cbr 1000 ------- 2 3.0 5.0 18 18
- 0.244 3 0 cbr 1000 ------- 2 3.0 5.0 18 18
r 0.2454 1 5 cbr 1000 ------- 2 3.0 5.0 16 16
r 0.2476 0 1 cbr 1000 ------- 2 3.0 5.0 17 17
+ 0.2476 1 5 cbr 1000 ------- 2 3.0 5.0 17 17
- 0.2476 1 5 cbr 1000 ------- 2 3.0 5.0 17 17
r 0.2498 3 0 cbr 1000 ------- 2 3.0 5.0 18 18
+ 0.2498 0 1 cbr 1000 ------- 2 3.0 5.0 18 18
- 0.2498 0 1 cbr 1000 ------- 2 3.0 5.0 18 18
+ 0.252 3 0 cbr 1000 ------- 2 3.0 5.0 19 19
- 0.252 3 0 cbr 1000 ------- 2 3.0 5.0 19 19
r 0.2534 1 5 cbr 1000 ------- 2 3.0 5.0 17 17
r 0.2556 0 1 cbr 1000 ------- 2 3.0 5.0 18 18
+ 0.2556 1 5 cbr 1000 ------- 2 3.0 5.0 18 18
- 0.2556 1 5 cbr 1000 ------- 2 3.0 5.0 18 18
r 0.2578 3 0 cbr 1000 ------- 2 3.0 5.0 19 19
+ 0.2578 0 1 cbr 1000 ------- 2 3.0 5.0 19 19
- 0.2578 0 1 cbr 1000 ------- 2 3.0 5.0 19 19
+ 0.26 3 0 cbr 1000 ------- 2 3.0 5.0 20 20
- 0.26 3 0 cbr 1000 ------- 2 3.0 5.0 20 20
r 0.2614 1 5 cbr 1000 ------- 2 3.0 5.0 18 18
r 0.2636 0 1 cbr 1000 ------- 2 3.0 5.0 19 19
+ 0.2636 1 5 cbr 1000 ------- 2 3.0 5.0 19 19
- 0.2636 1 5 cbr 1000 ------- 2 3.0 5.0 19 19
r 0.2658 3 0 cbr 1000 ------- 2 3.0 5.0 20 20
+ 0.2658 0 1 cbr 1000 ------- 2 3.0 5.0 20 20
- 0.2658 0 1 cbr 1000 ------- 2 3.0 5.0 20 20
+ 0.268 3 0 cbr 1000 ------- 2 3.0 5.0 21 21
- 0.268 3 0 cbr 1000 ------- 2 3.0 5.0 21 21
r 0.2694 1 5 cbr 1000 ------- 2 3.0 5.0 19 19
r 0.2716 0 1 cbr 1000 ------- 2 3.0 5.0 20 20
+ 0.2716 1 5 cbr 1000 ------- 2 3.0 5.0 20 20
- 0.2716 1 5 cbr 1000 ------- 2 3.0 5.0 20 20
r 0.2738 3 0 cbr 1000 ------- 2 3.0 5.0 21 21
+ 0.2738 0 1 cbr 1000 ------- 2 3.0 5.0 21 21
- 0.2738 0 1 cbr 1000 ------- 2 3.0 5.0 21 21
+ 0.276 3 0 cbr 1000 ------- 2 3.0 5.0 22 22
- 0.276 3 0 cbr 1000 ------- 2 3.0 5.0 22 22
r 0.2774 1 5 cbr 1000 ------- 2 3.0 5.0 20 20
r 0.2796 0 1 cbr 1000 ------- 2 3.0 5.0 21 21
+ 0.2796 1 5 cbr 1000 ------- 2 3.0 5.0 21 21
- 0.2796 1 5 cbr 1000 ------- 2 3.0 5.0 21 21
r 0.2818 3 0 cbr 1000 ------- 2 3.0 5.0 22 22
+ 0.2818 0 1 cbr 1000 ------- 2 3.0 5.0 22 22
- 0.2818 0 1 cbr 1000 ------- 2 3.0 5.0 22 22
+ 0.284 3 0 cbr 1000 ------- 2 3.0 5.0 23 23
- 0.284 3 0 cbr 1000 ------- 2 3.0 5.0 23 23
r 0.2854 1 5 cbr 1000 ------- 2 3.0 5.0 21 21
r 0.2876 0 1 cbr 1000 ------- 2 3.0 5.0 22 22
+ 0.2876 1 5 cbr 1000 ------- 2 3.0 5.0 22 22
- 0.2876 1 5 cbr 1000 ------- 2 3.0 5.0 22 22
r 0.2898 3 0 cbr 1000 ------- 2 3.0 5.0 23 23
+ 0.2898 0 1 cbr 1000 ------- 2 3.0 5.0 23 23
- 0.2898 0 1 cbr 1000 ------- 2 3.0 5.0 23 23
+ 0.292 3 0 cbr 1000 ------- 2 3.0 5.0 24 24
- 0.292 3 0 cbr 1000 ------- 2 3.0 5.0 24 24
r 0.2934 1 5 cbr 1000 ------- 2 3.0 5.0 22 22
r 0.2956 0 1 cbr 1000 ------- 2 3.0 5.0 23 23
+ 0.2956 1 5 cbr 1000 ------- 2 3.0 5.0 23 23
- 0.2956 1 5 cbr 1000 ------- 2 3.0 5.0 23 23
r 0.2978 3 0 cbr 1000 ------- 2 3.0 5.0 24 24
+ 0.2978 0 1 cbr 1000 ------- 2 3.0 5.0 24 24
- 0.2978 0 1 cbr 1000 ------- 2 3.0 5.0 24 24
+ 0.3 3 0 cbr 1000 ------- 2 3.0 5.0 25 25
- 0.3 3 0 cbr 1000 ------- 2 3.0 5.0 25 25
r 0.3014 1 5 cbr 1000 ------- 2 3.0 5.0 23 23
r 0.3036 0 1 cbr 1000 ------- 2 3.0 5.0 24 24
+ 0.3036 1 5 cbr 1000 ------- 2 3.0 5.0 24 24
- 0.3036 1 5 cbr 1000 ------- 2 3.0 5.0 24 24
r 0.3058 3 0 cbr 1000 ------- 2 3.0 5.0 25 25
+ 0.3058 0 1 cbr 1000 ------- 2 3.0 5.0 25 25
- 0.3058 0 1 cbr 1000 ------- 2 3.0 5.0 25 25
+ 0.308 3 0 cbr 1000 ------- 2 3.0 5.0 26 26
- 0.308 3 0 cbr 1000 ------- 2 3.0 5.0 26 26
r 0.3094 1 5 cbr 1000 ------- 2 3.0 5.0 24 24
r 0.3116 0 1 cbr 1000 ------- 2 3.0 5.0 25 25
+ 0.3116 1 5 cbr 1000 ------- 2 3.0 5.0 25 25
- 0.3116 1 5 cbr 1000 ------- 2 3.0 5.0 25 25
r 0.3138 3 0 cbr 1000 ------- 2 3.0 5.0 26 26
+ 0.3138 0 1 cbr 1000 ------- 2 3.0 5.0 26 26
- 0.3138 0 1 cbr 1000 ------- 2 3.0 5.0 26 26
+ 0.316 3 0 cbr 1000 ------- 2 3.0 5.0 27 27
- 0.316 3 0 cbr 1000 ------- 2 3.0 5.0 27 27
r 0.3174 1 5 cbr 1000 ------- 2 3.0 5.0 25 25
r 0.3196 0 1 cbr 1000 ------- 2 3.0 5.0 26 26
+ 0.3196 1 5 cbr 1000 ------- 2 3.0 5.0 26 26
- 0.3196 1 5 cbr 1000 ------- 2 3.0 5.0 26 26
r 0.3218 3 0 cbr 1000 ------- 2 3.0 5.0 27 27
+ 0.3218 0 1 cbr 1000 ------- 2 3.0 5.0 27 27
- 0.3218 0 1 cbr 1000 ------- 2 3.0 5.0 27 27
+ 0.324 3 0 cbr 1000 ------- 2 3.0 5.0 28 28
- 0.324 3 0 cbr 1000 ------- 2 3.0 5.0 28 28
r 0.3254 1 5 cbr 1000 ------- 2 3.0 5.0 26 26
r 0.3276 0 1 cbr 1000 ------- 2 3.0 5.0 27 27
+ 0.3276 1 5 cbr 1000 ------- 2 3.0 5.0 27 27
- 0.3276 1 5 cbr 1000 ------- 2 3.0 5.0 27 27
r 0.3298 3 0 cbr 1000 ------- 2 3.0 5.0 28 28
+ 0.3298 0 1 cbr 1000 ------- 2 3.0 5.0 28 28
- 0.3298 0 1 cbr 1000 ------- 2 3.0 5.0 28 28
+ 0.332 3 0 cbr 1000 ------- 2 3.0 5.0 29 29
- 0.332 3 0 cbr 1000 ------- 2 3.0 5.0 29 29
r 0.3334 1 5 cbr 1000 ------- 2 3.0 5.0 27 27
r 0.3356 0 1 cbr 1000 ------- 2 3.0 5.0 28 28
+ 0.3356 1 5 cbr 1000 ------- 2 3.0 5.0 28 28
- 0.3356 1 5 cbr 1000 ------- 2 3.0 5.0 28 28
r 0.3378 3 0 cbr 1000 ------- 2 3.0 5.0 29 29
+ 0.3378 0 1 cbr 1000 ------- 2 3.0 5.0 29 29
- 0.3378 0 1 cbr 1000 ------- 2 3.0 5.0 29 29
+ 0.34 3 0 cbr 1000 ------- 2 3.0 5.0 30 30
- 0.34 3 0 cbr 1000 ------- 2 3.0 5.0 30 30
r 0.3414 1 5 cbr 1000 ------- 2 3.0 5.0 28 28
r 0.3436 0 1 cbr 1000 ------- 2 3.0 5.0 29 29
+ 0.3436 1 5 cbr 1000 ------- 2 3.0 5.0 29 29
- 0.3436 1 5 cbr 1000 ------- 2 3.0 5.0 29 29
r 0.3458 3 0 cbr 1000 ------- 2 3.0 5.0 30 30
+ 0.3458 0 1 cbr 1000 ------- 2 3.0 5.0 30 30
- 0.3458 0 1 cbr 1000 ------- 2 3.0 5.0 30 30
+ 0.348 3 0 cbr 1000 ------- 2 3.0 5.0 31 31
- 0.348 3 0 cbr 1000 ------- 2 3.0 5.0 31 31
r 0.3494 1 5 cbr 1000 ------- 2 3.0 5.0 29 29
r 0.3516 0 1 cbr 1000 ------- 2 3.0 5.0 30 30
+ 0.3516 1 5 cbr 1000 ------- 2 3.0 5.0 30 30
- 0.3516 1 5 cbr 1000 ------- 2 3.0 5.0 30 30
r 0.3538 3 0 cbr 1000 ------- 2 3.0 5.0 31 31
+ 0.3538 0 1 cbr 1000 ------- 2 3.0 5.0 31 31
- 0.3538 0 1 cbr 1000 ------- 2 3.0 5.0 31 31
+ 0.356 3 0 cbr 1000 ------- 2 3.0 5.0 32 32
- 0.356 3 0 cbr 1000 ------- 2 3.0 5.0 32 32
r 0.3574 1 5 cbr 1000 ------- 2 3.0 5.0 30 30
r 0.3596 0 1 cbr 1000 ------- 2 3.0 5.0 31 31
+ 0.3596 1 5 cbr 1000 ------- 2 3.0 5.0 31 31
- 0.3596 1 5 cbr 1000 ------- 2 3.0 5.0 31 31
r 0.3618 3 0 cbr 1000 ------- 2 3.0 5.0 32 32
+ 0.3618 0 1 cbr 1000 ------- 2 3.0 5.0 32 32
- 0.3618 0 1 cbr 1000 ------- 2 3.0 5.0 32 32
+ 0.364 3 0 cbr 1000 ------- 2 3.0 5.0 33 33
- 0.364 3 0 cbr 1000 ------- 2 3.0 5.0 33 33
r 0.3654 1 5 cbr 1000 ------- 2 3.0 5.0 31 31
r 0.3676 0 1 cbr 1000 ------- 2 3.0 5.0 32 32
+ 0.3676 1 5 cbr 1000 ------- 2 3.0 5.0 32 32
- 0.3676 1 5 cbr 1000 ------- 2 3.0 5.0 32 32
r 0.3698 3 0 cbr 1000 ------- 2 3.0 5.0 33 33
+ 0.3698 0 1 cbr 1000 ------- 2 3.0 5.0 33 33
- 0.3698 0 1 cbr 1000 ------- 2 3.0 5.0 33 33
+ 0.372 3 0 cbr 1000 ------- 2 3.0 5.0 34 34
- 0.372 3 0 cbr 1000 ------- 2 3.0 5.0 34 34
r 0.3734 1 5 cbr 1000 ------- 2 3.0 5.0 32 32
r 0.3756 0 1 cbr 1000 ------- 2 3.0 5.0 33 33
+ 0.3756 1 5 cbr 1000 ------- 2 3.0 5.0 33 33
- 0.3756 1 5 cbr 1000 ------- 2 3.0 5.0 33 33
r 0.3778 3 0 cbr 1000 ------- 2 3.0 5.0 34 34
+ 0.3778 0 1 cbr 1000 ------- 2 3.0 5.0 34 34
- 0.3778 0 1 cbr 1000 ------- 2 3.0 5.0 34 34
+ 0.38 3 0 cbr 1000 ------- 2 3.0 5.0 35 35
- 0.38 3 0 cbr 1000 ------- 2 3.0 5.0 35 35
r 0.3814 1 5 cbr 1000 ------- 2 3.0 5.0 33 33
r 0.3836 0 1 cbr 1000 ------- 2 3.0 5.0 34 34
+ 0.3836 1 5 cbr 1000 ------- 2 3.0 5.0 34 34
- 0.3836 1 5 cbr 1000 ------- 2 3.0 5.0 34 34
r 0.3858 3 0 cbr 1000 ------- 2 3.0 5.0 35 35
+ 0.3858 0 1 cbr 1000 ------- 2 3.0 5.0 35 35
- 0.3858 0 1 cbr 1000 ------- 2 3.0 5.0 35 35
+ 0.388 3 0 cbr 1000 ------- 2 3.0 5.0 36 36
- 0.388 3 0 cbr 1000 ------- 2 3.0 5.0 36 36
r 0.3894 1 5 cbr 1000 ------- 2 3.0 5.0 34 34
r 0.3916 0 1 cbr 1000 ------- 2 3.0 5.0 35 35
+ 0.3916 1 5 cbr 1000 ------- 2 3.0 5.0 35 35
- 0.3916 1 5 cbr 1000 ------- 2 3.0 5.0 35 35
r 0.3938 3 0 cbr 1000 ------- 2 3.0 5.0 36 36
+ 0.3938 0 1 cbr 1000 ------- 2 3.0 5.0 36 36
- 0.3938 0 1 cbr 1000 ------- 2 3.0 5.0 36 36
+ 0.396 3 0 cbr 1000 ------- 2 3.0 5.0 37 37
- 0.396 3 0 cbr 1000 ------- 2 3.0 5.0 37 37
r 0.3974 1 5 cbr 1000 ------- 2 3.0 5.0 35 35
r 0.3996 0 1 cbr 1000 ------- 2 3.0 5.0 36 36
+ 0.3996 1 5 cbr 1000 ------- 2 3.0 5.0 36 36
- 0.3996 1 5 cbr 1000 ------- 2 3.0 5.0 36 36
r 0.4018 3 0 cbr 1000 ------- 2 3.0 5.0 37 37
+ 0.4018 0 1 cbr 1000 ------- 2 3.0 5.0 37 37
- 0.4018 0 1 cbr 1000 ------- 2 3.0 5.0 37 37
+ 0.404 3 0 cbr 1000 ------- 2 3.0 5.0 38 38
- 0.404 3 0 cbr 1000 ------- 2 3.0 5.0 38 38
r 0.4054 1 5 cbr 1000 ------- 2 3.0 5.0 36 36
r 0.4076 0 1 cbr 1000 ------- 2 3.0 5.0 37 37
+ 0.4076 1 5 cbr 1000 ------- 2 3.0 5.0 37 37
- 0.4076 1 5 cbr 1000 ------- 2 3.0 5.0 37 37
r 0.4098 3 0 cbr 1000 ------- 2 3.0 5.0 38 38
+ 0.4098 0 1 cbr 1000 ------- 2 3.0 5.0 38 38
- 0.4098 0 1 cbr 1000 ------- 2 3.0 5.0 38 38
+ 0.412 3 0 cbr 1000 ------- 2 3.0 5.0 39 39
- 0.412 3 0 cbr 1000 ------- 2 3.0 5.0 39 39
r 0.4134 1 5 cbr 1000 ------- 2 3.0 5.0 37 37
r 0.4156 0 1 cbr 1000 ------- 2 3.0 5.0 38 38
+ 0.4156 1 5 cbr 1000 ------- 2 3.0 5.0 38 38
- 0.4156 1 5 cbr 1000 ------- 2 3.0 5.0 38 38
r 0.4178 3 0 cbr 1000 ------- 2 3.0 5.0 39 39
+ 0.4178 0 1 cbr 1000 ------- 2 3.0 5.0 39 39
- 0.4178 0 1 cbr 1000 ------- 2 3.0 5.0 39 39
+ 0.42 3 0 cbr 1000 ------- 2 3.0 5.0 40 40
- 0.42 3 0 cbr 1000 ------- 2 3.0 5.0 40 40
r 0.4214 1 5 cbr 1000 ------- 2 3.0 5.0 38 38
r 0.4236 0 1 cbr 1000 ------- 2 3.0 5.0 39 39
+ 0.4236 1 5 cbr 1000 ------- 2 3.0 5.0 39 39
- 0.4236 1 5 cbr 1000 ------- 2 3.0 5.0 39 39
r 0.4258 3 0 cbr 1000 ------- 2 3.0 5.0 40 40
+ 0.4258 0 1 cbr 1000 ------- 2 3.0 5.0 40 40
- 0.4258 0 1 cbr 1000 ------- 2 3.0 5.0 40 40
+ 0.428 3 0 cbr 1000 ------- 2 3.0 5.0 41 41
- 0.428 3 0 cbr 1000 ------- 2 3.0 5.0 41 41
r 0.4294 1 5 cbr 1000 ------- 2 3.0 5.0 39 39
r 0.4316 0 1 cbr 1000 ------- 2 3.0 5.0 40 40
+ 0.4316 1 5 cbr 1000 ------- 2 3.0 5.0 40 40
- 0.4316 1 5 cbr 1000 ------- 2 3.0 5.0 40 40
r 0.4338 3 0 cbr 1000 ------- 2 3.0 5.0 41 41
+ 0.4338 0 1 cbr 1000 ------- 2 3.0 5.0 41 41
- 0.4338 0 1 cbr 1000 ------- 2 3.0 5.0 41 41
+ 0.436 3 0 cbr 1000 ------- 2 3.0 5.0 42 42
- 0.436 3 0 cbr 1000 ------- 2 3.0 5.0 42 42
r 0.4374 1 5 cbr 1000 ------- 2 3.0 5.0 40 40
r 0.4396 0 1 cbr 1000 ------- 2 3.0 5.0 41 41
+ 0.4396 1 5 cbr 1000 ------- 2 3.0 5.0 41 41
- 0.4396 1 5 cbr 1000 ------- 2 3.0 5.0 41 41
r 0.4418 3 0 cbr 1000 ------- 2 3.0 5.0 42 42
+ 0.4418 0 1 cbr 1000 ------- 2 3.0 5.0 42 42
- 0.4418 0 1 cbr 1000 ------- 2 3.0 5.0 42 42
+ 0.444 3 0 cbr 1000 ------- 2 3.0 5.0 43 43
- 0.444 3 0 cbr 1000 ------- 2 3.0 5.0 43 43
r 0.4454 1 5 cbr 1000 ------- 2 3.0 5.0 41 41
r 0.4476 0 1 cbr 1000 ------- 2 3.0 5.0 42 42
+ 0.4476 1 5 cbr 1000 ------- 2 3.0 5.0 42 42
- 0.4476 1 5 cbr 1000 ------- 2 3.0 5.0 42 42
r 0.4498 3 0 cbr 1000 ------- 2 3.0 5.0 43 43
+ 0.4498 0 1 cbr 1000 ------- 2 3.0 5.0 43 43
- 0.4498 0 1 cbr 1000 ------- 2 3.0 5.0 43 43
+ 0.452 3 0 cbr 1000 ------- 2 3.0 5.0 44 44
- 0.452 3 0 cbr 1000 ------- 2 3.0 5.0 44 44
r 0.4534 1 5 cbr 1000 ------- 2 3.0 5.0 42 42
r 0.4556 0 1 cbr 1000 ------- 2 3.0 5.0 43 43
+ 0.4556 1 5 cbr 1000 ------- 2 3.0 5.0 43 43
- 0.4556 1 5 cbr 1000 ------- 2 3.0 5.0 43 43
r 0.4578 3 0 cbr 1000 ------- 2 3.0 5.0 44 44
+ 0.4578 0 1 cbr 1000 ------- 2 3.0 5.0 44 44
- 0.4578 0 1 cbr 1000 ------- 2 3.0 5.0 44 44
+ 0.46 3 0 cbr 1000 ------- 2 3.0 5.0 45 45
- 0.46 3 0 cbr 1000 ------- 2 3.0 5.0 45 45
r 0.4614 1 5 cbr 1000 ------- 2 3.0 5.0 43 43
r 0.4636 0 1 cbr 1000 ------- 2 3.0 5.0 44 44
+ 0.4636 1 5 cbr 1000 ------- 2 3.0 5.0 44 44
- 0.4636 1 5 cbr 1000 ------- 2 3.0 5.0 44 44
r 0.4658 3 0 cbr 1000 ------- 2 3.0 5.0 45 45
+ 0.4658 0 1 cbr 1000 ------- 2 3.0 5.0 45 45
- 0.4658 0 1 cbr 1000 ------- 2 3.0 5.0 45 45
+ 0.468 3 0 cbr 1000 ------- 2 3.0 5.0 46 46
- 0.468 3 0 cbr 1000 ------- 2 3.0 5.0 46 46
r 0.4694 1 5 cbr 1000 ------- 2 3.0 5.0 44 44
r 0.4716 0 1 cbr 1000 ------- 2 3.0 5.0 45 45
+ 0.4716 1 5 cbr 1000 ------- 2 3.0 5.0 45 45
- 0.4716 1 5 cbr 1000 ------- 2 3.0 5.0 45 45
r 0.4738 3 0 cbr 1000 ------- 2 3.0 5.0 46 46
+ 0.4738 0 1 cbr 1000 ------- 2 3.0 5.0 46 46
- 0.4738 0 1 cbr 1000 ------- 2 3.0 5.0 46 46
+ 0.476 3 0 cbr 1000 ------- 2 3.0 5.0 47 47
- 0.476 3 0 cbr 1000 ------- 2 3.0 5.0 47 47
r 0.4774 1 5 cbr 1000 ------- 2 3.0 5.0 45 45
r 0.4796 0 1 cbr 1000 ------- 2 3.0 5.0 46 46
+ 0.4796 1 5 cbr 1000 ------- 2 3.0 5.0 46 46
- 0.4796 1 5 cbr 1000 ------- 2 3.0 5.0 46 46
r 0.4818 3 0 cbr 1000 ------- 2 3.0 5.0 47 47
+ 0.4818 0 1 cbr 1000 ------- 2 3.0 5.0 47 47
- 0.4818 0 1 cbr 1000 ------- 2 3.0 5.0 47 47
+ 0.484 3 0 cbr 1000 ------- 2 3.0 5.0 48 48
- 0.484 3 0 cbr 1000 ------- 2 3.0 5.0 48 48
r 0.4854 1 5 cbr 1000 ------- 2 3.0 5.0 46 46
r 0.4876 0 1 cbr 1000 ------- 2 3.0 5.0 47 47
+ 0.4876 1 5 cbr 1000 ------- 2 3.0 5.0 47 47
- 0.4876 1 5 cbr 1000 ------- 2 3.0 5.0 47 47
r 0.4898 3 0 cbr 1000 ------- 2 3.0 5.0 48 48
+ 0.4898 0 1 cbr 1000 ------- 2 3.0 5.0 48 48
- 0.4898 0 1 cbr 1000 ------- 2 3.0 5.0 48 48
+ 0.492 3 0 cbr 1000 ------- 2 3.0 5.0 49 49
- 0.492 3 0 cbr 1000 ------- 2 3.0 5.0 49 49
r 0.4934 1 5 cbr 1000 ------- 2 3.0 5.0 47 47
r 0.4956 0 1 cbr 1000 ------- 2 3.0 5.0 48 48
+ 0.4956 1 5 cbr 1000 ------- 2 3.0 5.0 48 48
- 0.4956 1 5 cbr 1000 ------- 2 3.0 5.0 48 48
r 0.4978 3 0 cbr 1000 ------- 2 3.0 5.0 49 49
+ 0.4978 0 1 cbr 1000 ------- 2 3.0 5.0 49 49
- 0.4978 0 1 cbr 1000 ------- 2 3.0 5.0 49 49
+ 0.5 3 0 cbr 1000 ------- 2 3.0 5.0 50 50
- 0.5 3 0 cbr 1000 ------- 2 3.0 5.0 50 50
r 0.5014 1 5 cbr 1000 ------- 2 3.0 5.0 48 48
r 0.5036 0 1 cbr 1000 ------- 2 3.0 5.0 49 49
+ 0.5036 1 5 cbr 1000 ------- 2 3.0 5.0 49 49
- 0.5036 1 5 cbr 1000 ------- 2 3.0 5.0 49 49
r 0.5058 3 0 cbr 1000 ------- 2 3.0 5.0 50 50
+ 0.5058 0 1 cbr 1000 ------- 2 3.0 5.0 50 50
- 0.5058 0 1 cbr 1000 ------- 2 3.0 5.0 50 50
+ 0.508 3 0 cbr 1000 ------- 2 3.0 5.0 51 51
- 0.508 3 0 cbr 1000 ------- 2 3.0 5.0 51 51
r 0.5094 1 5 cbr 1000 ------- 2 3.0 5.0 49 49
r 0.5116 0 1 cbr 1000 ------- 2 3.0 5.0 50 50
+ 0.5116 1 5 cbr 1000 ------- 2 3.0 5.0 50 50
- 0.5116 1 5 cbr 1000 ------- 2 3.0 5.0 50 50
r 0.5138 3 0 cbr 1000 ------- 2 3.0 5.0 51 51
+ 0.5138 0 1 cbr 1000 ------- 2 3.0 5.0 51 51
- 0.5138 0 1 cbr 1000 ------- 2 3.0 5.0 51 51
+ 0.516 3 0 cbr 1000 ------- 2 3.0 5.0 52 52
- 0.516 3 0 cbr 1000 ------- 2 3.0 5.0 52 52
r 0.5174 1 5 cbr 1000 ------- 2 3.0 5.0 50 50
r 0.5196 0 1 cbr 1000 ------- 2 3.0 5.0 51 51
+ 0.5196 1 5 cbr 1000 ------- 2 3.0 5.0 51 51
- 0.5196 1 5 cbr 1000 ------- 2 3.0 5.0 51 51
r 0.5218 3 0 cbr 1000 ------- 2 3.0 5.0 52 52
+ 0.5218 0 1 cbr 1000 ------- 2 3.0 5.0 52 52
- 0.5218 0 1 cbr 1000 ------- 2 3.0 5.0 52 52
+ 0.524 3 0 cbr 1000 ------- 2 3.0 5.0 53 53
- 0.524 3 0 cbr 1000 ------- 2 3.0 5.0 53 53
r 0.5254 1 5 cbr 1000 ------- 2 3.0 5.0 51 51
r 0.5276 0 1 cbr 1000 ------- 2 3.0 5.0 52 52
+ 0.5276 1 5 cbr 1000 ------- 2 3.0 5.0 52 52
- 0.5276 1 5 cbr 1000 ------- 2 3.0 5.0 52 52
r 0.5298 3 0 cbr 1000 ------- 2 3.0 5.0 53 53
+ 0.5298 0 1 cbr 1000 ------- 2 3.0 5.0 53 53
- 0.5298 0 1 cbr 1000 ------- 2 3.0 5.0 53 53
+ 0.532 3 0 cbr 1000 ------- 2 3.0 5.0 54 54
- 0.532 3 0 cbr 1000 ------- 2 3.0 5.0 54 54
r 0.5334 1 5 cbr 1000 ------- 2 3.0 5.0 52 52
r 0.5356 0 1 cbr 1000 ------- 2 3.0 5.0 53 53
+ 0.5356 1 5 cbr 1000 ------- 2 3.0 5.0 53 53
- 0.5356 1 5 cbr 1000 ------- 2 3.0 5.0 53 53
r 0.5378 3 0 cbr 1000 ------- 2 3.0 5.0 54 54
+ 0.5378 0 1 cbr 1000 ------- 2 3.0 5.0 54 54
- 0.5378 0 1 cbr 1000 ------- 2 3.0 5.0 54 54
+ 0.54 3 0 cbr 1000 ------- 2 3.0 5.0 55 55
- 0.54 3 0 cbr 1000 ------- 2 3.0 5.0 55 55
r 0.5414 1 5 cbr 1000 ------- 2 3.0 5.0 53 53
r 0.5436 0 1 cbr 1000 ------- 2 3.0 5.0 54 54
+ 0.5436 1 5 cbr 1000 ------- 2 3.0 5.0 54 54
- 0.5436 1 5 cbr 1000 ------- 2 3.0 5.0 54 54
r 0.5458 3 0 cbr 1000 ------- 2 3.0 5.0 55 55
+ 0.5458 0 1 cbr 1000 ------- 2 3.0 5.0 55 55
- 0.5458 0 1 cbr 1000 ------- 2 3.0 5.0 55 55
+ 0.548 3 0 cbr 1000 ------- 2 3.0 5.0 56 56
- 0.548 3 0 cbr 1000 ------- 2 3.0 5.0 56 56
r 0.5494 1 5 cbr 1000 ------- 2 3.0 5.0 54 54
r 0.5516 0 1 cbr 1000 ------- 2 3.0 5.0 55 55
+ 0.5516 1 5 cbr 1000 ------- 2 3.0 5.0 55 55
- 0.5516 1 5 cbr 1000 ------- 2 3.0 5.0 55 55
r 0.5538 3 0 cbr 1000 ------- 2 3.0 5.0 56 56
+ 0.5538 0 1 cbr 1000 ------- 2 3.0 5.0 56 56
- 0.5538 0 1 cbr 1000 ------- 2 3.0 5.0 56 56
+ 0.556 3 0 cbr 1000 ------- 2 3.0 5.0 57 57
- 0.556 3 0 cbr 1000 ------- 2 3.0 5.0 57 57
r 0.5574 1 5 cbr 1000 ------- 2 3.0 5.0 55 55
r 0.5596 0 1 cbr 1000 ------- 2 3.0 5.0 56 56
+ 0.5596 1 5 cbr 1000 ------- 2 3.0 5.0 56 56
- 0.5596 1 5 cbr 1000 ------- 2 3.0 5.0 56 56
r 0.5618 3 0 cbr 1000 ------- 2 3.0 5.0 57 57
+ 0.5618 0 1 cbr 1000 ------- 2 3.0 5.0 57 57
- 0.5618 0 1 cbr 1000 ------- 2 3.0 5.0 57 57
+ 0.564 3 0 cbr 1000 ------- 2 3.0 5.0 58 58
- 0.564 3 0 cbr 1000 ------- 2 3.0 5.0 58 58
r 0.5654 1 5 cbr 1000 ------- 2 3.0 5.0 56 56
r 0.5676 0 1 cbr 1000 ------- 2 3.0 5.0 57 57
+ 0.5676 1 5 cbr 1000 ------- 2 3.0 5.0 57 57
- 0.5676 1 5 cbr 1000 ------- 2 3.0 5.0 57 57
r 0.5698 3 0 cbr 1000 ------- 2 3.0 5.0 58 58
+ 0.5698 0 1 cbr 1000 ------- 2 3.0 5.0 58 58
- 0.5698 0 1 cbr 1000 ------- 2 3.0 5.0 58 58
+ 0.572 3 0 cbr 1000 ------- 2 3.0 5.0 59 59
- 0.572 3 0 cbr 1000 ------- 2 3.0 5.0 59 59
r 0.5734 1 5 cbr 1000 ------- 2 3.0 5.0 57 57
r 0.5756 0 1 cbr 1000 ------- 2 3.0 5.0 58 58
+ 0.5756 1 5 cbr 1000 ------- 2 3.0 5.0 58 58
- 0.5756 1 5 cbr 1000 ------- 2 3.0 5.0 58 58
r 0.5778 3 0 cbr 1000 ------- 2 3.0 5.0 59 59
+ 0.5778 0 1 cbr 1000 ------- 2 3.0 5.0 59 59
- 0.5778 0 1 cbr 1000 ------- 2 3.0 5.0 59 59
+ 0.58 3 0 cbr 1000 ------- 2 3.0 5.0 60 60
- 0.58 3 0 cbr 1000 ------- 2 3.0 5.0 60 60
r 0.5814 1 5 cbr 1000 ------- 2 3.0 5.0 58 58
r 0.5836 0 1 cbr 1000 ------- 2 3.0 5.0 59 59
+ 0.5836 1 5 cbr 1000 ------- 2 3.0 5.0 59 59
- 0.5836 1 5 cbr 1000 ------- 2 3.0 5.0 59 59
r 0.5858 3 0 cbr 1000 ------- 2 3.0 5.0 60 60
+ 0.5858 0 1 cbr 1000 ------- 2 3.0 5.0 60 60
- 0.5858 0 1 cbr 1000 ------- 2 3.0 5.0 60 60
+ 0.588 3 0 cbr 1000 ------- 2 3.0 5.0 61 61
- 0.588 3 0 cbr 1000 ------- 2 3.0 5.0 61 61
r 0.5894 1 5 cbr 1000 ------- 2 3.0 5.0 59 59
r 0.5916 0 1 cbr 1000 ------- 2 3.0 5.0 60 60
+ 0.5916 1 5 cbr 1000 ------- 2 3.0 5.0 60 60
- 0.5916 1 5 cbr 1000 ------- 2 3.0 5.0 60 60
r 0.5938 3 0 cbr 1000 ------- 2 3.0 5.0 61 61
+ 0.5938 0 1 cbr 1000 ------- 2 3.0 5.0 61 61
- 0.5938 0 1 cbr 1000 ------- 2 3.0 5.0 61 61
+ 0.596 3 0 cbr 1000 ------- 2 3.0 5.0 62 62
- 0.596 3 0 cbr 1000 ------- 2 3.0 5.0 62 62
r 0.5974 1 5 cbr 1000 ------- 2 3.0 5.0 60 60
r 0.5996 0 1 cbr 1000 ------- 2 3.0 5.0 61 61
+ 0.5996 1 5 cbr 1000 ------- 2 3.0 5.0 61 61
- 0.5996 1 5 cbr 1000 ------- 2 3.0 5.0 61 61
r 0.6018 3 0 cbr 1000 ------- 2 3.0 5.0 62 62
+ 0.6018 0 1 cbr 1000 ------- 2 3.0 5.0 62 62
- 0.6018 0 1 cbr 1000 ------- 2 3.0 5.0 62 62
+ 0.604 3 0 cbr 1000 ------- 2 3.0 5.0 63 63
- 0.604 3 0 cbr 1000 ------- 2 3.0 5.0 63 63
r 0.6054 1 5 cbr 1000 ------- 2 3.0 5.0 61 61
r 0.6076 0 1 cbr 1000 ------- 2 3.0 5.0 62 62
+ 0.6076 1 5 cbr 1000 ------- 2 3.0 5.0 62 62
- 0.6076 1 5 cbr 1000 ------- 2 3.0 5.0 62 62
r 0.6098 3 0 cbr 1000 ------- 2 3.0 5.0 63 63
+ 0.6098 0 1 cbr 1000 ------- 2 3.0 5.0 63 63
- 0.6098 0 1 cbr 1000 ------- 2 3.0 5.0 63 63
+ 0.612 3 0 cbr 1000 ------- 2 3.0 5.0 64 64
- 0.612 3 0 cbr 1000 ------- 2 3.0 5.0 64 64
r 0.6134 1 5 cbr 1000 ------- 2 3.0 5.0 62 62
r 0.6156 0 1 cbr 1000 ------- 2 3.0 5.0 63 63
+ 0.6156 1 5 cbr 1000 ------- 2 3.0 5.0 63 63
- 0.6156 1 5 cbr 1000 ------- 2 3.0 5.0 63 63
r 0.6178 3 0 cbr 1000 ------- 2 3.0 5.0 64 64
+ 0.6178 0 1 cbr 1000 ------- 2 3.0 5.0 64 64
- 0.6178 0 1 cbr 1000 ------- 2 3.0 5.0 64 64
+ 0.62 3 0 cbr 1000 ------- 2 3.0 5.0 65 65
- 0.62 3 0 cbr 1000 ------- 2 3.0 5.0 65 65
r 0.6214 1 5 cbr 1000 ------- 2 3.0 5.0 63 63
r 0.6236 0 1 cbr 1000 ------- 2 3.0 5.0 64 64
+ 0.6236 1 5 cbr 1000 ------- 2 3.0 5.0 64 64
- 0.6236 1 5 cbr 1000 ------- 2 3.0 5.0 64 64
r 0.6258 3 0 cbr 1000 ------- 2 3.0 5.0 65 65
+ 0.6258 0 1 cbr 1000 ------- 2 3.0 5.0 65 65
- 0.6258 0 1 cbr 1000 ------- 2 3.0 5.0 65 65
+ 0.628 3 0 cbr 1000 ------- 2 3.0 5.0 66 66
- 0.628 3 0 cbr 1000 ------- 2 3.0 5.0 66 66
r 0.6294 1 5 cbr 1000 ------- 2 3.0 5.0 64 64
r 0.6316 0 1 cbr 1000 ------- 2 3.0 5.0 65 65
+ 0.6316 1 5 cbr 1000 ------- 2 3.0 5.0 65 65
- 0.6316 1 5 cbr 1000 ------- 2 3.0 5.0 65 65
r 0.6338 3 0 cbr 1000 ------- 2 3.0 5.0 66 66
+ 0.6338 0 1 cbr 1000 ------- 2 3.0 5.0 66 66
- 0.6338 0 1 cbr 1000 ------- 2 3.0 5.0 66 66
+ 0.636 3 0 cbr 1000 ------- 2 3.0 5.0 67 67
- 0.636 3 0 cbr 1000 ------- 2 3.0 5.0 67 67
r 0.6374 1 5 cbr 1000 ------- 2 3.0 5.0 65 65
r 0.6396 0 1 cbr 1000 ------- 2 3.0 5.0 66 66
+ 0.6396 1 5 cbr 1000 ------- 2 3.0 5.0 66 66
- 0.6396 1 5 cbr 1000 ------- 2 3.0 5.0 66 66
r 0.6418 3 0 cbr 1000 ------- 2 3.0 5.0 67 67
+ 0.6418 0 1 cbr 1000 ------- 2 3.0 5.0 67 67
- 0.6418 0 1 cbr 1000 ------- 2 3.0 5.0 67 67
+ 0.644 3 0 cbr 1000 ------- 2 3.0 5.0 68 68
- 0.644 3 0 cbr 1000 ------- 2 3.0 5.0 68 68
r 0.6454 1 5 cbr 1000 ------- 2 3.0 5.0 66 66
r 0.6476 0 1 cbr 1000 ------- 2 3.0 5.0 67 67
+ 0.6476 1 5 cbr 1000 ------- 2 3.0 5.0 67 67
- 0.6476 1 5 cbr 1000 ------- 2 3.0 5.0 67 67
r 0.6498 3 0 cbr 1000 ------- 2 3.0 5.0 68 68
+ 0.6498 0 1 cbr 1000 ------- 2 3.0 5.0 68 68
- 0.6498 0 1 cbr 1000 ------- 2 3.0 5.0 68 68
+ 0.652 3 0 cbr 1000 ------- 2 3.0 5.0 69 69
- 0.652 3 0 cbr 1000 ------- 2 3.0 5.0 69 69
r 0.6534 1 5 cbr 1000 ------- 2 3.0 5.0 67 67
r 0.6556 0 1 cbr 1000 ------- 2 3.0 5.0 68 68
+ 0.6556 1 5 cbr 1000 ------- 2 3.0 5.0 68 68
- 0.6556 1 5 cbr 1000 ------- 2 3.0 5.0 68 68
r 0.6578 3 0 cbr 1000 ------- 2 3.0 5.0 69 69
+ 0.6578 0 1 cbr 1000 ------- 2 3.0 5.0 69 69
- 0.6578 0 1 cbr 1000 ------- 2 3.0 5.0 69 69
+ 0.66 3 0 cbr 1000 ------- 2 3.0 5.0 70 70
- 0.66 3 0 cbr 1000 ------- 2 3.0 5.0 70 70
r 0.6614 1 5 cbr 1000 ------- 2 3.0 5.0 68 68
r 0.6636 0 1 cbr 1000 ------- 2 3.0 5.0 69 69
+ 0.6636 1 5 cbr 1000 ------- 2 3.0 5.0 69 69
- 0.6636 1 5 cbr 1000 ------- 2 3.0 5.0 69 69
r 0.6658 3 0 cbr 1000 ------- 2 3.0 5.0 70 70
+ 0.6658 0 1 cbr 1000 ------- 2 3.0 5.0 70 70
- 0.6658 0 1 cbr 1000 ------- 2 3.0 5.0 70 70
+ 0.668 3 0 cbr 1000 ------- 2 3.0 5.0 71 71
- 0.668 3 0 cbr 1000 ------- 2 3.0 5.0 71 71
r 0.6694 1 5 cbr 1000 ------- 2 3.0 5.0 69 69
r 0.6716 0 1 cbr 1000 ------- 2 3.0 5.0 70 70
+ 0.6716 1 5 cbr 1000 ------- 2 3.0 5.0 70 70
- 0.6716 1 5 cbr 1000 ------- 2 3.0 5.0 70 70
r 0.6738 3 0 cbr 1000 ------- 2 3.0 5.0 71 71
+ 0.6738 0 1 cbr 1000 ------- 2 3.0 5.0 71 71
- 0.6738 0 1 cbr 1000 ------- 2 3.0 5.0 71 71
+ 0.676 3 0 cbr 1000 ------- 2 3.0 5.0 72 72
- 0.676 3 0 cbr 1000 ------- 2 3.0 5.0 72 72
r 0.6774 1 5 cbr 1000 ------- 2 3.0 5.0 70 70
r 0.6796 0 1 cbr 1000 ------- 2 3.0 5.0 71 71
+ 0.6796 1 5 cbr 1000 ------- 2 3.0 5.0 71 71
- 0.6796 1 5 cbr 1000 ------- 2 3.0 5.0 71 71
r 0.6818 3 0 cbr 1000 ------- 2 3.0 5.0 72 72
+ 0.6818 0 1 cbr 1000 ------- 2 3.0 5.0 72 72
- 0.6818 0 1 cbr 1000 ------- 2 3.0 5.0 72 72
+ 0.684 3 0 cbr 1000 ------- 2 3.0 5.0 73 73
- 0.684 3 0 cbr 1000 ------- 2 3.0 5.0 73 73
r 0.6854 1 5 cbr 1000 ------- 2 3.0 5.0 71 71
r 0.6876 0 1 cbr 1000 ------- 2 3.0 5.0 72 72
+ 0.6876 1 5 cbr 1000 ------- 2 3.0 5.0 72 72
- 0.6876 1 5 cbr 1000 ------- 2 3.0 5.0 72 72
r 0.6898 3 0 cbr 1000 ------- 2 3.0 5.0 73 73
+ 0.6898 0 1 cbr 1000 ------- 2 3.0 5.0 73 73