Sconfig 0.00000 tap: on snoop: rts? on errs? on
Sconfig 0.00000 salvage: on !bd replies? on
Sconfig 0.00000 grat error: on grat reply: on
Sconfig 0.00000 $reply for props: on ring 0 search: on
Sconfig 0.00000 using MOBICACHE
s 3.000000000 _1_ AGT  --- 0 cbr 512 [0 0 0 0] ------- [1:0 0:0 32 0] [0] 0 0
r 3.000000000 _1_ RTR  --- 0 cbr 512 [0 0 0 0] ------- [1:0 0:0 32 0] [0] 0 0
s 3.000000000 _2_ AGT  --- 2 cbr 512 [0 0 0 0] ------- [2:0 0:1 32 0] [0] 0 0
r 3.000000000 _2_ RTR  --- 2 cbr 512 [0 0 0 0] ------- [2:0 0:1 32 0] [0] 0 0
s 3.000000000 _3_ AGT  --- 4 cbr 512 [0 0 0 0] ------- [3:0 0:2 32 0] [0] 0 0
r 3.000000000 _3_ RTR  --- 4 cbr 512 [0 0 0 0] ------- [3:0 0:2 32 0] [0] 0 0
s 3.000000000 _4_ AGT  --- 6 cbr 512 [0 0 0 0] ------- [4:0 0:3 32 0] [0] 0 0
r 3.000000000 _4_ RTR  --- 6 cbr 512 [0 0 0 0] ------- [4:0 0:3 32 0] [0] 0 0
s 3.000000000 _5_ AGT  --- 8 cbr 512 [0 0 0 0] ------- [5:0 0:4 32 0] [0] 0 0
r 3.000000000 _5_ RTR  --- 8 cbr 512 [0 0 0 0] ------- [5:0 0:4 32 0] [0] 0 0
s 3.000000000 _6_ AGT  --- 10 cbr 512 [0 0 0 0] ------- [6:0 0:5 32 0] [0] 0 0
r 3.000000000 _6_ RTR  --- 10 cbr 512 [0 0 0 0] ------- [6:0 0:5 32 0] [0] 0 0
s 3.000000000 _7_ AGT  --- 12 cbr 512 [0 0 0 0] ------- [7:0 0:6 32 0] [0] 0 0
r 3.000000000 _7_ RTR  --- 12 cbr 512 [0 0 0 0] ------- [7:0 0:6 32 0] [0] 0 0
s 3.000000000 _8_ AGT  --- 14 cbr 512 [0 0 0 0] ------- [8:0 0:7 32 0] [0] 0 0
r 3.000000000 _8_ RTR  --- 14 cbr 512 [0 0 0 0] ------- [8:0 0:7 32 0] [0] 0 0
s 3.000000000 _9_ AGT  --- 16 cbr 512 [0 0 0 0] ------- [9:0 0:8 32 0] [0] 0 0
r 3.000000000 _9_ RTR  --- 16 cbr 512 [0 0 0 0] ------- [9:0 0:8 32 0] [0] 0 0
s 3.000000000 _10_ AGT  --- 18 cbr 512 [0 0 0 0] ------- [10:0 0:9 32 0] [0] 0 0
r 3.000000000 _10_ RTR  --- 18 cbr 512 [0 0 0 0] ------- [10:0 0:9 32 0] [0] 0 0
s 3.000000000 _11_ AGT  --- 20 cbr 512 [0 0 0 0] ------- [11:0 0:10 32 0] [0] 0 0
r 3.000000000 _11_ RTR  --- 20 cbr 512 [0 0 0 0] ------- [11:0 0:10 32 0] [0] 0 0
s 3.000000000 _12_ AGT  --- 22 cbr 512 [0 0 0 0] ------- [12:0 0:11 32 0] [0] 0 0
r 3.000000000 _12_ RTR  --- 22 cbr 512 [0 0 0 0] ------- [12:0 0:11 32 0] [0] 0 0
s 3.000000000 _13_ AGT  --- 24 cbr 512 [0 0 0 0] ------- [13:0 0:12 32 0] [0] 0 0
r 3.000000000 _13_ RTR  --- 24 cbr 512 [0 0 0 0] ------- [13:0 0:12 32 0] [0] 0 0
s 3.000000000 _14_ AGT  --- 26 cbr 512 [0 0 0 0] ------- [14:0 0:13 32 0] [0] 0 0
r 3.000000000 _14_ RTR  --- 26 cbr 512 [0 0 0 0] ------- [14:0 0:13 32 0] [0] 0 0
s 3.000000000 _15_ AGT  --- 28 cbr 512 [0 0 0 0] ------- [15:0 0:14 32 0] [0] 0 0
r 3.000000000 _15_ RTR  --- 28 cbr 512 [0 0 0 0] ------- [15:0 0:14 32 0] [0] 0 0
s 3.000000000 _16_ AGT  --- 30 cbr 512 [0 0 0 0] ------- [16:0 0:15 32 0] [0] 0 0
r 3.000000000 _16_ RTR  --- 30 cbr 512 [0 0 0 0] ------- [16:0 0:15 32 0] [0] 0 0
s 3.000000000 _17_ AGT  --- 32 cbr 512 [0 0 0 0] ------- [17:0 0:16 32 0] [0] 0 0
r 3.000000000 _17_ RTR  --- 32 cbr 512 [0 0 0 0] ------- [17:0 0:16 32 0] [0] 0 0
s 3.000000000 _18_ AGT  --- 34 cbr 512 [0 0 0 0] ------- [18:0 0:17 32 0] [0] 0 0
r 3.000000000 _18_ RTR  --- 34 cbr 512 [0 0 0 0] ------- [18:0 0:17 32 0] [0] 0 0
s 3.000000000 _19_ AGT  --- 36 cbr 512 [0 0 0 0] ------- [19:0 0:18 32 0] [0] 0 0
r 3.000000000 _19_ RTR  --- 36 cbr 512 [0 0 0 0] ------- [19:0 0:18 32 0] [0] 0 0
s 3.000000000 _20_ AGT  --- 38 cbr 512 [0 0 0 0] ------- [20:0 0:19 32 0] [0] 0 0
r 3.000000000 _20_ RTR  --- 38 cbr 512 [0 0 0 0] ------- [20:0 0:19 32 0] [0] 0 0
s 3.000000000 _21_ AGT  --- 40 cbr 512 [0 0 0 0] ------- [21:0 0:20 32 0] [0] 0 0
r 3.000000000 _21_ RTR  --- 40 cbr 512 [0 0 0 0] ------- [21:0 0:20 32 0] [0] 0 0
s 3.000000000 _22_ AGT  --- 42 cbr 512 [0 0 0 0] ------- [22:0 0:21 32 0] [0] 0 0
r 3.000000000 _22_ RTR  --- 42 cbr 512 [0 0 0 0] ------- [22:0 0:21 32 0] [0] 0 0
s 3.000000000 _23_ AGT  --- 44 cbr 512 [0 0 0 0] ------- [23:0 0:22 32 0] [0] 0 0
r 3.000000000 _23_ RTR  --- 44 cbr 512 [0 0 0 0] ------- [23:0 0:22 32 0] [0] 0 0
s 3.000000000 _24_ AGT  --- 46 cbr 512 [0 0 0 0] ------- [24:0 0:23 32 0] [0] 0 0
r 3.000000000 _24_ RTR  --- 46 cbr 512 [0 0 0 0] ------- [24:0 0:23 32 0] [0] 0 0
s 3.000000000 _25_ AGT  --- 48 cbr 512 [0 0 0 0] ------- [25:0 0:24 32 0] [0] 0 0
r 3.000000000 _25_ RTR  --- 48 cbr 512 [0 0 0 0] ------- [25:0 0:24 32 0] [0] 0 0
s 3.000000000 _26_ AGT  --- 50 cbr 512 [0 0 0 0] ------- [26:0 0:25 32 0] [0] 0 0
r 3.000000000 _26_ RTR  --- 50 cbr 512 [0 0 0 0] ------- [26:0 0:25 32 0] [0] 0 0
s 3.000000000 _27_ AGT  --- 52 cbr 512 [0 0 0 0] ------- [27:0 0:26 32 0] [0] 0 0
r 3.000000000 _27_ RTR  --- 52 cbr 512 [0 0 0 0] ------- [27:0 0:26 32 0] [0] 0 0
s 3.000000000 _28_ AGT  --- 54 cbr 512 [0 0 0 0] ------- [28:0 0:27 32 0] [0] 0 0
r 3.000000000 _28_ RTR  --- 54 cbr 512 [0 0 0 0] ------- [28:0 0:27 32 0] [0] 0 0
s 3.000000000 _29_ AGT  --- 56 cbr 512 [0 0 0 0] ------- [29:0 0:28 32 0] [0] 0 0
r 3.000000000 _29_ RTR  --- 56 cbr 512 [0 0 0 0] ------- [29:0 0:28 32 0] [0] 0 0
s 3.000000000 _30_ AGT  --- 58 cbr 512 [0 0 0 0] ------- [30:0 0:29 32 0] [0] 0 0
r 3.000000000 _30_ RTR  --- 58 cbr 512 [0 0 0 0] ------- [30:0 0:29 32 0] [0] 0 0
s 3.000000000 _31_ AGT  --- 60 cbr 512 [0 0 0 0] ------- [31:0 0:30 32 0] [0] 0 0
r 3.000000000 _31_ RTR  --- 60 cbr 512 [0 0 0 0] ------- [31:0 0:30 32 0] [0] 0 0
s 3.000000000 _32_ AGT  --- 62 cbr 512 [0 0 0 0] ------- [32:0 0:31 32 0] [0] 0 0
r 3.000000000 _32_ RTR  --- 62 cbr 512 [0 0 0 0] ------- [32:0 0:31 32 0] [0] 0 0
s 3.000000000 _33_ AGT  --- 64 cbr 512 [0 0 0 0] ------- [33:0 0:32 32 0] [0] 0 0
r 3.000000000 _33_ RTR  --- 64 cbr 512 [0 0 0 0] ------- [33:0 0:32 32 0] [0] 0 0
s 3.000000000 _34_ AGT  --- 66 cbr 512 [0 0 0 0] ------- [34:0 0:33 32 0] [0] 0 0
r 3.000000000 _34_ RTR  --- 66 cbr 512 [0 0 0 0] ------- [34:0 0:33 32 0] [0] 0 0
s 3.000000000 _35_ AGT  --- 68 cbr 512 [0 0 0 0] ------- [35:0 0:34 32 0] [0] 0 0
r 3.000000000 _35_ RTR  --- 68 cbr 512 [0 0 0 0] ------- [35:0 0:34 32 0] [0] 0 0
s 3.000000000 _36_ AGT  --- 70 cbr 512 [0 0 0 0] ------- [36:0 0:35 32 0] [0] 0 0
r 3.000000000 _36_ RTR  --- 70 cbr 512 [0 0 0 0] ------- [36:0 0:35 32 0] [0] 0 0
s 3.000000000 _37_ AGT  --- 72 cbr 512 [0 0 0 0] ------- [37:0 0:36 32 0] [0] 0 0
r 3.000000000 _37_ RTR  --- 72 cbr 512 [0 0 0 0] ------- [37:0 0:36 32 0] [0] 0 0
s 3.000000000 _38_ AGT  --- 74 cbr 512 [0 0 0 0] ------- [38:0 0:37 32 0] [0] 0 0
r 3.000000000 _38_ RTR  --- 74 cbr 512 [0 0 0 0] ------- [38:0 0:37 32 0] [0] 0 0
s 3.000000000 _39_ AGT  --- 76 cbr 512 [0 0 0 0] ------- [39:0 0:38 32 0] [0] 0 0
r 3.000000000 _39_ RTR  --- 76 cbr 512 [0 0 0 0] ------- [39:0 0:38 32 0] [0] 0 0
s 3.000000000 _40_ AGT  --- 78 cbr 512 [0 0 0 0] ------- [40:0 0:39 32 0] [0] 0 0
r 3.000000000 _40_ RTR  --- 78 cbr 512 [0 0 0 0] ------- [40:0 0:39 32 0] [0] 0 0
s 3.000000000 _41_ AGT  --- 80 cbr 512 [0 0 0 0] ------- [41:0 0:40 32 0] [0] 0 0
r 3.000000000 _41_ RTR  --- 80 cbr 512 [0 0 0 0] ------- [41:0 0:40 32 0] [0] 0 0
s 3.000000000 _42_ AGT  --- 82 cbr 512 [0 0 0 0] ------- [42:0 0:41 32 0] [0] 0 0
r 3.000000000 _42_ RTR  --- 82 cbr 512 [0 0 0 0] ------- [42:0 0:41 32 0] [0] 0 0
s 3.000000000 _43_ AGT  --- 84 cbr 512 [0 0 0 0] ------- [43:0 0:42 32 0] [0] 0 0
r 3.000000000 _43_ RTR  --- 84 cbr 512 [0 0 0 0] ------- [43:0 0:42 32 0] [0] 0 0
s 3.000000000 _44_ AGT  --- 86 cbr 512 [0 0 0 0] ------- [44:0 0:43 32 0] [0] 0 0
r 3.000000000 _44_ RTR  --- 86 cbr 512 [0 0 0 0] ------- [44:0 0:43 32 0] [0] 0 0
s 3.000000000 _45_ AGT  --- 88 cbr 512 [0 0 0 0] ------- [45:0 0:44 32 0] [0] 0 0
r 3.000000000 _45_ RTR  --- 88 cbr 512 [0 0 0 0] ------- [45:0 0:44 32 0] [0] 0 0
s 3.000000000 _46_ AGT  --- 90 cbr 512 [0 0 0 0] ------- [46:0 0:45 32 0] [0] 0 0
r 3.000000000 _46_ RTR  --- 90 cbr 512 [0 0 0 0] ------- [46:0 0:45 32 0] [0] 0 0
s 3.000000000 _47_ AGT  --- 92 cbr 512 [0 0 0 0] ------- [47:0 0:46 32 0] [0] 0 0
r 3.000000000 _47_ RTR  --- 92 cbr 512 [0 0 0 0] ------- [47:0 0:46 32 0] [0] 0 0
s 3.000000000 _48_ AGT  --- 94 cbr 512 [0 0 0 0] ------- [48:0 0:47 32 0] [0] 0 0
r 3.000000000 _48_ RTR  --- 94 cbr 512 [0 0 0 0] ------- [48:0 0:47 32 0] [0] 0 0
s 3.000000000 _49_ AGT  --- 96 cbr 512 [0 0 0 0] ------- [49:0 0:48 32 0] [0] 0 0
r 3.000000000 _49_ RTR  --- 96 cbr 512 [0 0 0 0] ------- [49:0 0:48 32 0] [0] 0 0
s 3.000051067 _45_ RTR  --- 89 DSR 32 [0 0 0 0] ------- [45:255 0:255 32 0] 1 [1 1] [0 1 0 0->0] [0 0 0 0->0]
s 3.000192278 _19_ RTR  --- 37 DSR 32 [0 0 0 0] ------- [19:255 0:255 32 0] 1 [1 1] [0 1 0 0->0] [0 0 0 0->0]
s 3.000401841 _25_ RTR  --- 49 DSR 32 [0 0 0 0] ------- [25:255 0:255 32 0] 1 [1 1] [0 1 0 0->0] [0 0 0 0->0]
s 3.000638761 _37_ RTR  --- 73 DSR 32 [0 0 0 0] ------- [37:255 0:255 32 0] 1 [1 1] [0 1 0 0->0] [0 0 0 0->0]
r 3.000891067 _44_ RTR  --- 89 DSR 32 [0 ffffffff 2d 800] ------- [45:255 0:255 32 0] 1 [1 1] [0 1 0 0->0] [0 0 0 0->0]
r 3.000891067 _43_ RTR  --- 89 DSR 32 [0 ffffffff 2d 800] ------- [45:255 0:255 32 0] 1 [1 1] [0 1 0 0->0] [0 0 0 0->0]
r 3.000891067 _42_ RTR  --- 89 DSR 32 [0 ffffffff 2d 800] ------- [45:255 0:255 32 0] 1 [1 1] [0 1 0 0->0] [0 0 0 0->0]
r 3.000891067 _41_ RTR  --- 89 DSR 32 [0 ffffffff 2d 800] ------- [45:255 0:255 32 0] 1 [1 1] [0 1 0 0->0] [0 0 0 0->0]
r 3.000891067 _40_ RTR  --- 89 DSR 32 [0 ffffffff 2d 800] ------- [45:255 0:255 32 0] 1 [1 1] [0 1 0 0->0] [0 0 0 0->0]
r 3.000891067 _39_ RTR  --- 89 DSR 32 [0 ffffffff 2d 800] ------- [45:255 0:255 32 0] 1 [1 1] [0 1 0 0->0] [0 0 0 0->0]
r 3.000891067 _38_ RTR  --- 89 DSR 32 [0 ffffffff 2d 800] ------- [45:255 0:255 32 0] 1 [1 1] [0 1 0 0->0] [0 0 0 0->0]
r 3.000891067 _37_ RTR  --- 89 DSR 32 [0 ffffffff 2d 800] ------- [45:255 0:255 32 0] 1 [1 1] [0 1 0 0->0] [0 0 0 0->0]
r 3.000891067 _36_ RTR  --- 89 DSR 32 [0 ffffffff 2d 800] ------- [45:255 0:255 32 0] 1 [1 1] [0 1 0 0->0] [0 0 0 0->0]
r 3.000891067 _35_ RTR  --- 89 DSR 32 [0 ffffffff 2d 800] ------- [45:255 0:255 32 0] 1 [1 1] [0 1 0 0->0] [0 0 0 0->0]
r 3.000891067 _34_ RTR  --- 89 DSR 32 [0 ffffffff 2d 800] ------- [45:255 0:255 32 0] 1 [1 1] [0 1 0 0->0] [0 0 0 0->0]
r 3.000891067 _33_ RTR  --- 89 DSR 32 [0 ffffffff 2d 800] ------- [45:255 0:255 32 0] 1 [1 1] [0 1 0 0->0] [0 0 0 0->0]
r 3.000891067 _32_ RTR  --- 89 DSR 32 [0 ffffffff 2d 800] ------- [45:255 0:255 32 0] 1 [1 1] [0 1 0 0->0] [0 0 0 0->0]
r 3.000891067 _31_ RTR  --- 89 DSR 32 [0 ffffffff 2d 800] ------- [45:255 0:255 32 0] 1 [1 1] [0 1 0 0->0] [0 0 0 0->0]
r 3.000891067 _30_ RTR  --- 89 DSR 32 [0 ffffffff 2d 800] ------- [45:255 0:255 32 0] 1 [1 1] [0 1 0 0->0] [0 0 0 0->0]
r 3.000891067 _29_ RTR  --- 89 DSR 32 [0 ffffffff 2d 800] ------- [45:255 0:255 32 0] 1 [1 1] [0 1 0 0->0] [0 0 0 0->0]
r 3.000891067 _28_ RTR  --- 89 DSR 32 [0 ffffffff 2d 800] ------- [45:255 0:255 32 0] 1 [1 1] [0 1 0 0->0] [0 0 0 0->0]
r 3.000891067 _27_ RTR  --- 89 DSR 32 [0 ffffffff 2d 800] ------- [45:255 0:255 32 0] 1 [1 1] [0 1 0 0->0] [0 0 0 0->0]
r 3.000891067 _26_ RTR  --- 89 DSR 32 [0 ffffffff 2d 800] ------- [45:255 0:255 32 0] 1 [1 1] [0 1 0 0->0] [0 0 0 0->0]
r 3.000891067 _25_ RTR  --- 89 DSR 32 [0 ffffffff 2d 800] ------- [45:255 0:255 32 0] 1 [1 1] [0 1 0 0->0] [0 0 0 0->0]
r 3.000891067 _24_ RTR  --- 89 DSR 32 [0 ffffffff 2d 800] ------- [45:255 0:255 32 0] 1 [1 1] [0 1 0 0->0] [0 0 0 0->0]
r 3.000891067 _23_ RTR  --- 89 DSR 32 [0 ffffffff 2d 800] ------- [45:255 0:255 32 0] 1 [1 1] [0 1 0 0->0] [0 0 0 0->0]
r 3.000891067 _22_ RTR  --- 89 DSR 32 [0 ffffffff 2d 800] ------- [45:255 0:255 32 0] 1 [1 1] [0 1 0 0->0] [0 0 0 0->0]
r 3.000891067 _21_ RTR  --- 89 DSR 32 [0 ffffffff 2d 800] ------- [45:255 0:255 32 0] 1 [1 1] [0 1 0 0->0] [0 0 0 0->0]
r 3.000891067 _20_ RTR  --- 89 DSR 32 [0 ffffffff 2d 800] ------- [45:255 0:255 32 0] 1 [1 1] [0 1 0 0->0] [0 0 0 0->0]
r 3.000891067 _19_ RTR  --- 89 DSR 32 [0 ffffffff 2d 800] ------- [45:255 0:255 32 0] 1 [1 1] [0 1 0 0->0] [0 0 0 0->0]
r 3.000891067 _18_ RTR  --- 89 DSR 32 [0 ffffffff 2d 800] ------- [45:255 0:255 32 0] 1 [1 1] [0 1 0 0->0] [0 0 0 0->0]
r 3.000891067 _17_ RTR  --- 89 DSR 32 [0 ffffffff 2d 800] ------- [45:255 0:255 32 0] 1 [1 1] [0 1 0 0->0] [0 0 0 0->0]
r 3.000891067 _16_ RTR  --- 89 DSR 32 [0 ffffffff 2d 800] ------- [45:255 0:255 32 0] 1 [1 1] [0 1 0 0->0] [0 0 0 0->0]
r 3.000891067 _15_ RTR  --- 89 DSR 32 [0 ffffffff 2d 800] ------- [45:255 0:255 32 0] 1 [1 1] [0 1 0 0->0] [0 0 0 0->0]
r 3.000891067 _14_ RTR  --- 89 DSR 32 [0 ffffffff 2d 800] ------- [45:255 0:255 32 0] 1 [1 1] [0 1 0 0->0] [0 0 0 0->0]
r 3.000891067 _13_ RTR  --- 89 DSR 32 [0 ffffffff 2d 800] ------- [45:255 0:255 32 0] 1 [1 1] [0 1 0 0->0] [0 0 0 0->0]
r 3.000891067 _12_ RTR  --- 89 DSR 32 [0 ffffffff 2d 800] ------- [45:255 0:255 32 0] 1 [1 1] [0 1 0 0->0] [0 0 0 0->0]
r 3.000891067 _11_ RTR  --- 89 DSR 32 [0 ffffffff 2d 800] ------- [45:255 0:255 32 0] 1 [1 1] [0 1 0 0->0] [0 0 0 0->0]
r 3.000891067 _10_ RTR  --- 89 DSR 32 [0 ffffffff 2d 800] ------- [45:255 0:255 32 0] 1 [1 1] [0 1 0 0->0] [0 0 0 0->0]
r 3.000891067 _9_ RTR  --- 89 DSR 32 [0 ffffffff 2d 800] ------- [45:255 0:255 32 0] 1 [1 1] [0 1 0 0->0] [0 0 0 0->0]
r 3.000891067 _8_ RTR  --- 89 DSR 32 [0 ffffffff 2d 800] ------- [45:255 0:255 32 0] 1 [1 1] [0 1 0 0->0] [0 0 0 0->0]
r 3.000891067 _7_ RTR  --- 89 DSR 32 [0 ffffffff 2d 800] ------- [45:255 0:255 32 0] 1 [1 1] [0 1 0 0->0] [0 0 0 0->0]
r 3.000891067 _6_ RTR  --- 89 DSR 32 [0 ffffffff 2d 800] ------- [45:255 0:255 32 0] 1 [1 1] [0 1 0 0->0] [0 0 0 0->0]
r 3.000891067 _5_ RTR  --- 89 DSR 32 [0 ffffffff 2d 800] ------- [45:255 0:255 32 0] 1 [1 1] [0 1 0 0->0] [0 0 0 0->0]
r 3.000891067 _46_ RTR  --- 89 DSR 32 [0 ffffffff 2d 800] ------- [45:255 0:255 32 0] 1 [1 1] [0 1 0 0->0] [0 0 0 0->0]
r 3.000891067 _47_ RTR  --- 89 DSR 32 [0 ffffffff 2d 800] ------- [45:255 0:255 32 0] 1 [1 1] [0 1 0 0->0] [0 0 0 0->0]
r 3.000891067 _48_ RTR  --- 89 DSR 32 [0 ffffffff 2d 800] ------- [45:255 0:255 32 0] 1 [1 1] [0 1 0 0->0] [0 0 0 0->0]
r 3.000891067 _49_ RTR  --- 89 DSR 32 [0 ffffffff 2d 800] ------- [45:255 0:255 32 0] 1 [1 1] [0 1 0 0->0] [0 0 0 0->0]
r 3.000891172 _0_ RTR  --- 89 DSR 32 [0 ffffffff 2d 800] ------- [45:255 0:255 32 0] 1 [1 1] [0 1 0 0->0] [0 0 0 0->0]
r 3.000891216 _1_ RTR  --- 89 DSR 32 [0 ffffffff 2d 800] ------- [45:255 0:255 32 0] 1 [1 1] [0 1 0 0->0] [0 0 0 0->0]
r 3.000891261 _2_ RTR  --- 89 DSR 32 [0 ffffffff 2d 800] ------- [45:255 0:255 32 0] 1 [1 1] [0 1 0 0->0] [0 0 0 0->0]
r 3.000891307 _3_ RTR  --- 89 DSR 32 [0 ffffffff 2d 800] ------- [45:255 0:255 32 0] 1 [1 1] [0 1 0 0->0] [0 0 0 0->0]
r 3.000891353 _4_ RTR  --- 89 DSR 32 [0 ffffffff 2d 800] ------- [45:255 0:255 32 0] 1 [1 1] [0 1 0 0->0] [0 0 0 0->0]
s 3.000903315 _21_ RTR  --- 41 DSR 32 [0 0 0 0] ------- [21:255 0:255 32 0] 1 [1 1] [0 1 0 0->0] [0 0 0 0->0]
s 3.001200927 _38_ RTR  --- 75 DSR 32 [0 0 0 0] ------- [38:255 0:255 32 0] 1 [1 1] [0 1 0 0->0] [0 0 0 0->0]
s 3.001202684 _17_ RTR  --- 33 DSR 32 [0 0 0 0] ------- [17:255 0:255 32 0] 1 [1 1] [0 1 0 0->0] [0 0 0 0->0]
s 3.001215425 _44_ RTR  --- 87 DSR 32 [0 0 0 0] ------- [44:255 0:255 32 0] 1 [1 1] [0 1 0 0->0] [0 0 0 0->0]
s 3.001681997 _20_ RTR  --- 39 DSR 32 [0 0 0 0] ------- [20:255 0:255 32 0] 1 [1 1] [0 1 0 0->0] [0 0 0 0->0]
s 3.001795050 _34_ RTR  --- 67 DSR 32 [0 0 0 0] ------- [34:255 0:255 32 0] 1 [1 1] [0 1 0 0->0] [0 0 0 0->0]
r 3.001863315 _20_ RTR  --- 41 DSR 32 [0 ffffffff 15 800] ------- [21:255 0:255 32 0] 1 [1 1] [0 1 0 0->0] [0 0 0 0->0]
r 3.001863315 _19_ RTR  --- 41 DSR 32 [0 ffffffff 15 800] ------- [21:255 0:255 32 0] 1 [1 1] [0 1 0 0->0] [0 0 0 0->0]
r 3.001863315 _18_ RTR  --- 41 DSR 32 [0 ffffffff 15 800] ------- [21:255 0:255 32 0] 1 [1 1] [0 1 0 0->0] [0 0 0 0->0]
r 3.001863315 _17_ RTR  --- 41 DSR 32 [0 ffffffff 15 800] ------- [21:255 0:255 32 0] 1 [1 1] [0 1 0 0->0] [0 0 0 0->0]
r 3.001863315 _16_ RTR  --- 41 DSR 32 [0 ffffffff 15 800] ------- [21:255 0:255 32 0] 1 [1 1] [0 1 0 0->0] [0 0 0 0->0]
r 3.001863315 _15_ RTR  --- 41 DSR 32 [0 ffffffff 15 800] ------- [21:255 0:255 32 0] 1 [1 1] [0 1 0 0->0] [0 0 0 0->0]
r 3.001863315 _14_ RTR  --- 41 DSR 32 [0 ffffffff 15 800] ------- [21:255 0:255 32 0] 1 [1 1] [0 1 0 0->0] [0 0 0 0->0]
r 3.001863315 _13_ RTR  --- 41 DSR 32 [0 ffffffff 15 800] ------- [21:255 0:255 32 0] 1 [1 1] [0 1 0 0->0] [0 0 0 0->0]
r 3.001863315 _12_ RTR  --- 41 DSR 32 [0 ffffffff 15 800] ------- [21:255 0:255 32 0] 1 [1 1] [0 1 0 0->0] [0 0 0 0->0]
r 3.001863315 _11_ RTR  --- 41 DSR 32 [0 ffffffff 15 800] ------- [21:255 0:255 32 0] 1 [1 1] [0 1 0 0->0] [0 0 0 0->0]
r 3.001863315 _10_ RTR  --- 41 DSR 32 [0 ffffffff 15 800] ------- [21:255 0:255 32 0] 1 [1 1] [0 1 0 0->0] [0 0 0 0->0]
r 3.001863315 _9_ RTR  --- 41 DSR 32 [0 ffffffff 15 800] ------- [21:255 0:255 32 0] 1 [1 1] [0 1 0 0->0] [0 0 0 0->0]
r 3.001863315 _8_ RTR  --- 41 DSR 32 [0 ffffffff 15 800] ------- [21:255 0:255 32 0] 1 [1 1] [0 1 0 0->0] [0 0 0 0->0]
r 3.001863315 _7_ RTR  --- 41 DSR 32 [0 ffffffff 15 800] ------- [21:255 0:255 32 0] 1 [1 1] [0 1 0 0->0] [0 0 0 0->0]
r 3.001863315 _6_ RTR  --- 41 DSR 32 [0 ffffffff 15 800] ------- [21:255 0:255 32 0] 1 [1 1] [0 1 0 0->0] [0 0 0 0->0]
r 3.001863315 _5_ RTR  --- 41 DSR 32 [0 ffffffff 15 800] ------- [21:255 0:255 32 0] 1 [1 1] [0 1 0 0->0] [0 0 0 0->0]
r 3.001863315 _22_ RTR  --- 41 DSR 32 [0 ffffffff 15 800] ------- [21:255 0:255 32 0] 1 [1 1] [0 1 0 0->0] [0 0 0 0->0]
r 3.001863315 _23_ RTR  --- 41 DSR 32 [0 ffffffff 15 800] ------- [21:255 0:255 32 0] 1 [1 1] [0 1 0 0->0] [0 0 0 0->0]
r 3.001863315 _24_ RTR  --- 41 DSR 32 [0 ffffffff 15 800] ------- [21:255 0:255 32 0] 1 [1 1] [0 1 0 0->0] [0 0 0 0->0]
r 3.001863315 _25_ RTR  --- 41 DSR 32 [0 ffffffff 15 800] ------- [21:255 0:255 32 0] 1 [1 1] [0 1 0 0->0] [0 0 0 0->0]
r 3.001863315 _26_ RTR  --- 41 DSR 32 [0 ffffffff 15 800] ------- [21:255 0:255 32 0] 1 [1 1] [0 1 0 0->0] [0 0 0 0->0]
r 3.001863315 _27_ RTR  --- 41 DSR 32 [0 ffffffff 15 800] ------- [21:255 0:255 32 0] 1 [1 1] [0 1 0 0->0] [0 0 0 0->0]
r 3.001863315 _28_ RTR  --- 41 DSR 32 [0 ffffffff 15 800] ------- [21:255 0:255 32 0] 1 [1 1] [0 1 0 0->0] [0 0 0 0->0]
r 3.001863315 _29_ RTR  --- 41 DSR 32 [0 ffffffff 15 800] ------- [21:255 0:255 32 0] 1 [1 1] [0 1 0 0->0] [0 0 0 0->0]
r 3.001863315 _30_ RTR  --- 41 DSR 32 [0 ffffffff 15 800] ------- [21:255 0:255 32 0] 1 [1 1] [0 1 0 0->0] [0 0 0 0->0]
r 3.001863315 _31_ RTR  --- 41 DSR 32 [0 ffffffff 15 800] ------- [21:255 0:255 32 0] 1 [1 1] [0 1 0 0->0] [0 0 0 0->0]
r 3.001863315 _32_ RTR  --- 41 DSR 32 [0 ffffffff 15 800] ------- [21:255 0:255 32 0] 1 [1 1] [0 1 0 0->0] [0 0 0 0->0]
r 3.001863315 _33_ RTR  --- 41 DSR 32 [0 ffffffff 15 800] ------- [21:255 0:255 32 0] 1 [1 1] [0 1 0 0->0] [0 0 0 0->0]
r 3.001863315 _34_ RTR  --- 41 DSR 32 [0 ffffffff 15 800] ------- [21:255 0:255 32 0] 1 [1 1] [0 1 0 0->0] [0 0 0 0->0]
r 3.001863315 _35_ RTR  --- 41 DSR 32 [0 ffffffff 15 800] ------- [21:255 0:255 32 0] 1 [1 1] [0 1 0 0->0] [0 0 0 0->0]
r 3.001863315 _36_ RTR  --- 41 DSR 32 [0 ffffffff 15 800] ------- [21:255 0:255 32 0] 1 [1 1] [0 1 0 0->0] [0 0 0 0->0]
r 3.001863315 _37_ RTR  --- 41 DSR 32 [0 ffffffff 15 800] ------- [21:255 0:255 32 0] 1 [1 1] [0 1 0 0->0] [0 0 0 0->0]
r 3.001863315 _38_ RTR  --- 41 DSR 32 [0 ffffffff 15 800] ------- [21:255 0:255 32 0] 1 [1 1] [0 1 0 0->0] [0 0 0 0->0]
r 3.001863315 _39_ RTR  --- 41 DSR 32 [0 ffffffff 15 800] ------- [21:255 0:255 32 0] 1 [1 1] [0 1 0 0->0] [0 0 0 0->0]
r 3.001863315 _40_ RTR  --- 41 DSR 32 [0 ffffffff 15 800] ------- [21:255 0:255 32 0] 1 [1 1] [0 1 0 0->0] [0 0 0 0->0]
r 3.001863315 _41_ RTR  --- 41 DSR 32 [0 ffffffff 15 800] ------- [21:255 0:255 32 0] 1 [1 1] [0 1 0 0->0] [0 0 0 0->0]
r 3.001863315 _42_ RTR  --- 41 DSR 32 [0 ffffffff 15 800] ------- [21:255 0:255 32 0] 1 [1 1] [0 1 0 0->0] [0 0 0 0->0]
r 3.001863315 _43_ RTR  --- 41 DSR 32 [0 ffffffff 15 800] ------- [21:255 0:255 32 0] 1 [1 1] [0 1 0 0->0] [0 0 0 0->0]
r 3.001863315 _44_ RTR  --- 41 DSR 32 [0 ffffffff 15 800] ------- [21:255 0:255 32 0] 1 [1 1] [0 1 0 0->0] [0 0 0 0->0]
r 3.001863315 _45_ RTR  --- 41 DSR 32 [0 ffffffff 15 800] ------- [21:255 0:255 32 0] 1 [1 1] [0 1 0 0->0] [0 0 0 0->0]
r 3.001863315 _46_ RTR  --- 41 DSR 32 [0 ffffffff 15 800] ------- [21:255 0:255 32 0] 1 [1 1] [0 1 0 0->0] [0 0 0 0->0]
r 3.001863315 _47_ RTR  --- 41 DSR 32 [0 ffffffff 15 800] ------- [21:255 0:255 32 0] 1 [1 1] [0 1 0 0->0] [0 0 0 0->0]
r 3.001863315 _48_ RTR  --- 41 DSR 32 [0 ffffffff 15 800] ------- [21:255 0:255 32 0] 1 [1 1] [0 1 0 0->0] [0 0 0 0->0]
r 3.001863315 _49_ RTR  --- 41 DSR 32 [0 ffffffff 15 800] ------- [21:255 0:255 32 0] 1 [1 1] [0 1 0 0->0] [0 0 0 0->0]
r 3.001863420 _0_ RTR  --- 41 DSR 32 [0 ffffffff 15 800] ------- [21:255 0:255 32 0] 1 [1 1] [0 1 0 0->0] [0 0 0 0->0]
r 3.001863464 _1_ RTR  --- 41 DSR 32 [0 ffffffff 15 800] ------- [21:255 0:255 32 0] 1 [1 1] [0 1 0 0->0] [0 0 0 0->0]
r 3.001863509 _2_ RTR  --- 41 DSR 32 [0 ffffffff 15 800] ------- [21:255 0:255 32 0] 1 [1 1] [0 1 0 0->0] [0 0 0 0->0]
r 3.001863555 _3_ RTR  --- 41 DSR 32 [0 ffffffff 15 800] ------- [21:255 0:255 32 0] 1 [1 1] [0 1 0 0->0] [0 0 0 0->0]
r 3.001863601 _4_ RTR  --- 41 DSR 32 [0 ffffffff 15 800] ------- [21:255 0:255 32 0] 1 [1 1] [0 1 0 0->0] [0 0 0 0->0]
s 3.002100712 _39_ RTR  --- 77 DSR 32 [0 0 0 0] ------- [39:255 0:255 32 0] 1 [1 1] [0 1 0 0->0] [0 0 0 0->0]
s 3.002397281 _3_ RTR  --- 5 DSR 32 [0 0 0 0] ------- [3:255 0:255 32 0] 1 [1 1] [0 1 0 0->0] [0 0 0 0->0]
s 3.002540989 _1_ RTR  --- 1 DSR 32 [0 0 0 0] ------- [1:255 0:255 32 0] 1 [1 1] [0 1 0 0->0] [0 0 0 0->0]
s 3.002562201 _18_ RTR  --- 35 DSR 32 [0 0 0 0] ------- [18:255 0:255 32 0] 1 [1 1] [0 1 0 0->0] [0 0 0 0->0]
s 3.002723404 _43_ RTR  --- 85 DSR 32 [0 0 0 0] ------- [43:255 0:255 32 0] 1 [1 1] [0 1 0 0->0] [0 0 0 0->0]
s 3.002895633 _2_ RTR  --- 3 DSR 32 [0 0 0 0] ------- [2:255 0:255 32 0] 1 [1 1] [0 1 0 0->0] [0 0 0 0->0]
s 3.003650968 _13_ RTR  --- 25 DSR 32 [0 0 0 0] ------- [13:255 0:255 32 0] 1 [1 1] [0 1 0 0->0] [0 0 0 0->0]
r 3.003827315 _19_ RTR  --- 39 DSR 32 [0 ffffffff 14 800] ------- [20:255 0:255 32 0] 1 [1 1] [0 1 0 0->0] [0 0 0 0->0]
r 3.003827315 _18_ RTR  --- 39 DSR 32 [0 ffffffff 14 800] ------- [20:255 0:255 32 0] 1 [1 1] [0 1 0 0->0] [0 0 0 0->0]
r 3.003827315 _17_ RTR  --- 39 DSR 32 [0 ffffffff 14 800] ------- [20:255 0:255 32 0] 1 [1 1] [0 1 0 0->0] [0 0 0 0->0]
r 3.003827315 _16_ RTR  --- 39 DSR 32 [0 ffffffff 14 800] ------- [20:255 0:255 32 0] 1 [1 1] [0 1 0 0->0] [0 0 0 0->0]
r 3.003827315 _15_ RTR  --- 39 DSR 32 [0 ffffffff 14 800] ------- [20:255 0:255 32 0] 1 [1 1] [0 1 0 0->0] [0 0 0 0->0]
r 3.003827315 _14_ RTR  --- 39 DSR 32 [0 ffffffff 14 800] ------- [20:255 0:255 32 0] 1 [1 1] [0 1 0 0->0] [0 0 0 0->0]
r 3.003827315 _13_ RTR  --- 39 DSR 32 [0 ffffffff 14 800] ------- [20:255 0:255 32 0] 1 [1 1] [0 1 0 0->0] [0 0 0 0->0]
r 3.003827315 _12_ RTR  --- 39 DSR 32 [0 ffffffff 14 800] ------- [20:255 0:255 32 0] 1 [1 1] [0 1 0 0->0] [0 0 0 0->0]
r 3.003827315 _11_ RTR  --- 39 DSR 32 [0 ffffffff 14 800] ------- [20:255 0:255 32 0] 1 [1 1] [0 1 0 0->0] [0 0 0 0->0]
r 3.003827315 _10_ RTR  --- 39 DSR 32 [0 ffffffff 14 800] ------- [20:255 0:255 32 0] 1 [1 1] [0 1 0 0->0] [0 0 0 0->0]
r 3.003827315 _9_ RTR  --- 39 DSR 32 [0 ffffffff 14 800] ------- [20:255 0:255 32 0] 1 [1 1] [0 1 0 0->0] [0 0 0 0->0]
r 3.003827315 _8_ RTR  --- 39 DSR 32 [0 ffffffff 14 800] ------- [20:255 0:255 32 0] 1 [1 1] [0 1 0 0->0] [0 0 0 0->0]
r 3.003827315 _7_ RTR  --- 39 DSR 32 [0 ffffffff 14 800] ------- [20:255 0:255 32 0] 1 [1 1] [0 1 0 0->0] [0 0 0 0->0]
r 3.003827315 _6_ RTR  --- 39 DSR 32 [0 ffffffff 14 800] ------- [20:255 0:255 32 0] 1 [1 1] [0 1 0 0->0] [0 0 0 0->0]
r 3.003827315 _5_ RTR  --- 39 DSR 32 [0 ffffffff 14 800] ------- [20:255 0:255 32 0] 1 [1 1] [0 1 0 0->0] [0 0 0 0->0]
r 3.003827315 _21_ RTR  --- 39 DSR 32 [0 ffffffff 14 800] ------- [20:255 0:255 32 0] 1 [1 1] [0 1 0 0->0] [0 0 0 0->0]
r 3.003827315 _22_ RTR  --- 39 DSR 32 [0 ffffffff 14 800] ------- [20:255 0:255 32 0] 1 [1 1] [0 1 0 0->0] [0 0 0 0->0]
r 3.003827315 _23_ RTR  --- 39 DSR 32 [0 ffffffff 14 800] ------- [20:255 0:255 32 0] 1 [1 1] [0 1 0 0->0] [0 0 0 0->0]
r 3.003827315 _24_ RTR  --- 39 DSR 32 [0 ffffffff 14 800] ------- [20:255 0:255 32 0] 1 [1 1] [0 1 0 0->0] [0 0 0 0->0]
r 3.003827315 _25_ RTR  --- 39 DSR 32 [0 ffffffff 14 800] ------- [20:255 0:255 32 0] 1 [1 1] [0 1 0 0->0] [0 0 0 0->0]
r 3.003827315 _26_ RTR  --- 39 DSR 32 [0 ffffffff 14 800] ------- [20:255 0:255 32 0] 1 [1 1] [0 1 0 0->0] [0 0 0 0->0]
r 3.003827315 _27_ RTR  --- 39 DSR 32 [0 ffffffff 14 800] ------- [20:255 0:255 32 0] 1 [1 1] [0 1 0 0->0] [0 0 0 0->0]
r 3.003827315 _28_ RTR  --- 39 DSR 32 [0 ffffffff 14 800] ------- [20:255 0:255 32 0] 1 [1 1] [0 1 0 0->0] [0 0 0 0->0]
r 3.003827315 _29_ RTR  --- 39 DSR 32 [0 ffffffff 14 800] ------- [20:255 0:255 32 0] 1 [1 1] [0 1 0 0->0] [0 0 0 0->0]
r 3.003827315 _30_ RTR  --- 39 DSR 32 [0 ffffffff 14 800] ------- [20:255 0:255 32 0] 1 [1 1] [0 1 0 0->0] [0 0 0 0->0]
r 3.003827315 _31_ RTR  --- 39 DSR 32 [0 ffffffff 14 800] ------- [20:255 0:255 32 0] 1 [1 1] [0 1 0 0->0] [0 0 0 0->0]
r 3.003827315 _32_ RTR  --- 39 DSR 32 [0 ffffffff 14 800] ------- [20:255 0:255 32 0] 1 [1 1] [0 1 0 0->0] [0 0 0 0->0]
r 3.003827315 _33_ RTR  --- 39 DSR 32 [0 ffffffff 14 800] ------- [20:255 0:255 32 0] 1 [1 1] [0 1 0 0->0] [0 0 0 0->0]
r 3.003827315 _34_ RTR  --- 39 DSR 32 [0 ffffffff 14 800] ------- [20:255 0:255 32 0] 1 [1 1] [0 1 0 0->0] [0 0 0 0->0]
r 3.003827315 _35_ RTR  --- 39 DSR 32 [0 ffffffff 14 800] ------- [20:255 0:255 32 0] 1 [1 1] [0 1 0 0->0] [0 0 0 0->0]
r 3.003827315 _36_ RTR  --- 39 DSR 32 [0 ffffffff 14 800] ------- [20:255 0:255 32 0] 1 [1 1] [0 1 0 0->0] [0 0 0 0->0]
r 3.003827315 _37_ RTR  --- 39 DSR 32 [0 ffffffff 14 800] ------- [20:255 0:255 32 0] 1 [1 1] [0 1 0 0->0] [0 0 0 0->0]
r 3.003827315 _38_ RTR  --- 39 DSR 32 [0 ffffffff 14 800] ------- [20:255 0:255 32 0] 1 [1 1] [0 1 0 0->0] [0 0 0 0->0]
r 3.003827315 _39_ RTR  --- 39 DSR 32 [0 ffffffff 14 800] ------- [20:255 0:255 32 0] 1 [1 1] [0 1 0 0->0] [0 0 0 0->0]
r 3.003827315 _40_ RTR  --- 39 DSR 32 [0 ffffffff 14 800] ------- [20:255 0:255 32 0] 1 [1 1] [0 1 0 0->0] [0 0 0 0->0]
r 3.003827315 _41_ RTR  --- 39 DSR 32 [0 ffffffff 14 800] ------- [20:255 0:255 32 0] 1 [1 1] [0 1 0 0->0] [0 0 0 0->0]
r 3.003827315 _42_ RTR  --- 39 DSR 32 [0 ffffffff 14 800] ------- [20:255 0:255 32 0] 1 [1 1] [0 1 0 0->0] [0 0 0 0->0]
r 3.003827315 _43_ RTR  --- 39 DSR 32 [0 ffffffff 14 800] ------- [20:255 0:255 32 0] 1 [1 1] [0 1 0 0->0] [0 0 0 0->0]
r 3.003827315 _44_ RTR  --- 39 DSR 32 [0 ffffffff 14 800] ------- [20:255 0:255 32 0] 1 [1 1] [0 1 0 0->0] [0 0 0 0->0]
r 3.003827315 _45_ RTR  --- 39 DSR 32 [0 ffffffff 14 800] ------- [20:255 0:255 32 0] 1 [1 1] [0 1 0 0->0] [0 0 0 0->0]
r 3.003827315 _46_ RTR  --- 39 DSR 32 [0 ffffffff 14 800] ------- [20:255 0:255 32 0] 1 [1 1] [0 1 0 0->0] [0 0 0 0->0]
r 3.003827315 _47_ RTR  --- 39 DSR 32 [0 ffffffff 14 800] ------- [20:255 0:255 32 0] 1 [1 1] [0 1 0 0->0] [0 0 0 0->0]
r 3.003827315 _48_ RTR  --- 39 DSR 32 [0 ffffffff 14 800] ------- [20:255 0:255 32 0] 1 [1 1] [0 1 0 0->0] [0 0 0 0->0]
r 3.003827315 _49_ RTR  --- 39 DSR 32 [0 ffffffff 14 800] ------- [20:255 0:255 32 0] 1 [1 1] [0 1 0 0->0] [0 0 0 0->0]
r 3.003827420 _0_ RTR  --- 39 DSR 32 [0 ffffffff 14 800] ------- [20:255 0:255 32 0] 1 [1 1] [0 1 0 0->0] [0 0 0 0->0]
r 3.003827464 _1_ RTR  --- 39 DSR 32 [0 ffffffff 14 800] ------- [20:255 0:255 32 0] 1 [1 1] [0 1 0 0->0] [0 0 0 0->0]
r 3.003827509 _2_ RTR  --- 39 DSR 32 [0 ffffffff 14 800] ------- [20:255 0:255 32 0] 1 [1 1] [0 1 0 0->0] [0 0 0 0->0]
r 3.003827555 _3_ RTR  --- 39 DSR 32 [0 ffffffff 14 800] ------- [20:255 0:255 32 0] 1 [1 1] [0 1 0 0->0] [0 0 0 0->0]
r 3.003827601 _4_ RTR  --- 39 DSR 32 [0 ffffffff 14 800] ------- [20:255 0:255 32 0] 1 [1 1] [0 1 0 0->0] [0 0 0 0->0]
s 3.003913164 _16_ RTR  --- 31 DSR 32 [0 0 0 0] ------- [16:255 0:255 32 0] 1 [1 1] [0 1 0 0->0] [0 0 0 0->0]
s 3.004074329 _7_ RTR  --- 13 DSR 32 [0 0 0 0] ------- [7:255 0:255 32 0] 1 [1 1] [0 1 0 0->0] [0 0 0 0->0]
s 3.004405925 _5_ RTR  --- 9 DSR 32 [0 0 0 0] ------- [5:255 0:255 32 0] 1 [1 1] [0 1 0 0->0] [0 0 0 0->0]
r 3.004777315 _36_ RTR  --- 73 DSR 32 [0 ffffffff 25 800] ------- [37:255 0:255 32 0] 1 [1 1] [0 1 0 0->0] [0 0 0 0->0]
r 3.004777315 _35_ RTR  --- 73 DSR 32 [0 ffffffff 25 800] ------- [37:255 0:255 32 0] 1 [1 1] [0 1 0 0->0] [0 0 0 0->0]
r 3.004777315 _34_ RTR  --- 73 DSR 32 [0 ffffffff 25 800] ------- [37:255 0:255 32 0] 1 [1 1] [0 1 0 0->0] [0 0 0 0->0]
r 3.004777315 _33_ RTR  --- 73 DSR 32 [0 ffffffff 25 800] ------- [37:255 0:255 32 0] 1 [1 1] [0 1 0 0->0] [0 0 0 0->0]
r 3.004777315 _32_ RTR  --- 73 DSR 32 [0 ffffffff 25 800] ------- [37:255 0:255 32 0] 1 [1 1] [0 1 0 0->0] [0 0 0 0->0]
r 3.004777315 _31_ RTR  --- 73 DSR 32 [0 ffffffff 25 800] ------- [37:255 0:255 32 0] 1 [1 1] [0 1 0 0->0] [0 0 0 0->0]
r 3.004777315 _30_ RTR  --- 73 DSR 32 [0 ffffffff 25 800] ------- [37:255 0:255 32 0] 1 [1 1] [0 1 0 0->0] [0 0 0 0->0]
r 3.004777315 _29_ RTR  --- 73 DSR 32 [0 ffffffff 25 800] ------- [37:255 0:255 32 0] 1 [1 1] [0 1 0 0->0] [0 0 0 0->0]
r 3.004777315 _28_ RTR  --- 73 DSR 32 [0 ffffffff 25 800] ------- [37:255 0:255 32 0] 1 [1 1] [0 1 0 0->0] [0 0 0 0->0]
r 3.004777315 _27_ RTR  --- 73 DSR 32 [0 ffffffff 25 800] ------- [37:255 0:255 32 0] 1 [1 1] [0 1 0 0->0] [0 0 0 0->0]
r 3.004777315 _26_ RTR  --- 73 DSR 32 [0 ffffffff 25 800] ------- [37:255 0:255 32 0] 1 [1 1] [0 1 0 0->0] [0 0 0 0->0]
r 3.004777315 _25_ RTR  --- 73 DSR 32 [0 ffffffff 25 800] ------- [37:255 0:255 32 0] 1 [1 1] [0 1 0 0->0] [0 0 0 0->0]
r 3.004777315 _24_ RTR  --- 73 DSR 32 [0 ffffffff 25 800] ------- [37:255 0:255 32 0] 1 [1 1] [0 1 0 0->0] [0 0 0 0->0]
r 3.004777315 _23_ RTR  --- 73 DSR 32 [0 ffffffff 25 800] ------- [37:255 0:255 32 0] 1 [1 1] [0 1 0 0->0] [0 0 0 0->0]
r 3.004777315 _22_ RTR  --- 73 DSR 32 [0 ffffffff 25 800] ------- [37:255 0:255 32 0] 1 [1 1] [0 1 0 0->0] [0 0 0 0->0]
r 3.004777315 _21_ RTR  --- 73 DSR 32 [0 ffffffff 25 800] ------- [37:255 0:255 32 0] 1 [1 1] [0 1 0 0->0] [0 0 0 0->0]