n -t * -s 0  -x 328.28704759134308 -y 178.28149463103199 -Z 0 -z 10  -v circle -c green
n -t * -s 1  -x 271.74104006769437 -y 178.30955993201493 -Z 0 -z 10  -v circle -c green
n -t * -s 2  -x 271.66794567943367 -y 121.76359268645393 -Z 0 -z 10  -v circle -c green
n -t * -s 3  -x 328.21383678905477 -y 121.64546925726722 -Z 0 -z 10  -v circle -c green
n -t * -s 4  -x 356.75397836852227 -y 206.38249674628918 -Z 0 -z 10  -v circle -c green
n -t * -s 5  -x 243.66271583972087 -y 206.79885926181936 -Z 0 -z 10  -v circle -c green
n -t * -s 6  -x 243.15629586310365 -y 93.707964151249655 -Z 0 -z 10  -v circle -c green
n -t * -s 7  -x 356.2467518403966 -y 93.111487034684757 -Z 0 -z 10  -v circle -c green
n -t * -s 8  -x 385.39992857799194 -y 234.30214824590104 -Z 0 -z 10  -v circle -c green
n -t * -s 9  -x 215.76588472784778 -y 235.46703355281363 -Z 0 -z 10  -v circle -c green
n -t * -s 10  -x 214.46591567011586 -y 65.83397111750925 -Z 0 -z 10  -v circle -c green
n -t * -s 11  -x 384.09788912009208 -y 64.398919133315289 -Z 0 -z 10  -v circle -c green
n -t * -s 12  -x 414.22403082763952 -y 262.03959470422257 -Z 0 -z 10  -v circle -c green
n -t * -s 13  -x 188.05140046672182 -y 264.3132147327583 -Z 0 -z 10  -v circle -c green
n -t * -s 14  -x 185.59767385228548 -y 38.142466628340358 -Z 0 -z 10  -v circle -c green
n -t * -s 15  -x 411.76639627711535 -y 35.508634984000565 -Z 0 -z 10  -v circle -c green
n -t * -s 16  -x 300 -y 150 -Z 0 -z 10  -v circle -c green
n -t * -s 17  -x 2 -y 2 -Z 0 -z 10  -v circle -c green
n -t * -s 18  -x 250 -y 150 -Z 0 -z 10  -v circle -c green
n -t * -s 19  -x 136.96416027077754 -y 263.23823972805974 -Z 0 -z 10  -v circle -c green
n -t * -s 20  -x 136.67178271773457 -y 37.05437074581576 -Z 0 -z 10  -v circle -c green
V -t * -v 1.0a5 -a 0
W -t * -x 500 -y 250
A -t * -n 1 -p 0 -o 0xffffffff -c 31 -a 1
A -t * -h 1 -m 2147483647 -s 0
+ -t 0.000000000 -s 17 -d -1 -p cbr -e 512 -c 2 -a 0 -i 0 -k AGT 
- -t 0.000000000 -s 17 -d -1 -p cbr -e 512 -c 2 -a 0 -i 0 -k AGT
h -t 0.000000000 -s 17 -d -1 -p cbr -e 512 -c 2 -a 0 -i 0 -k AGT
+ -t 0.003487410 -s 17 -d -1 -p DSR -e 32 -c 2 -a 0 -i 1 -k RTR 
- -t 0.003487410 -s 17 -d -1 -p DSR -e 32 -c 2 -a 0 -i 1 -k RTR
h -t 0.003487410 -s 17 -d -1 -p DSR -e 32 -c 2 -a 0 -i 1 -k RTR
+ -t 0.009142857 -s 17 -d -1 -p cbr -e 512 -c 2 -a 0 -i 2 -k AGT 
- -t 0.009142857 -s 17 -d -1 -p cbr -e 512 -c 2 -a 0 -i 2 -k AGT
h -t 0.009142857 -s 17 -d -1 -p cbr -e 512 -c 2 -a 0 -i 2 -k AGT
+ -t 0.018285714 -s 17 -d -1 -p cbr -e 512 -c 2 -a 0 -i 4 -k AGT 
- -t 0.018285714 -s 17 -d -1 -p cbr -e 512 -c 2 -a 0 -i 4 -k AGT
h -t 0.018285714 -s 17 -d -1 -p cbr -e 512 -c 2 -a 0 -i 4 -k AGT
+ -t 0.027428571 -s 17 -d -1 -p cbr -e 512 -c 2 -a 0 -i 6 -k AGT 
- -t 0.027428571 -s 17 -d -1 -p cbr -e 512 -c 2 -a 0 -i 6 -k AGT
h -t 0.027428571 -s 17 -d -1 -p cbr -e 512 -c 2 -a 0 -i 6 -k AGT
+ -t 0.036571429 -s 17 -d -1 -p cbr -e 512 -c 2 -a 0 -i 8 -k AGT 
- -t 0.036571429 -s 17 -d -1 -p cbr -e 512 -c 2 -a 0 -i 8 -k AGT
h -t 0.036571429 -s 17 -d -1 -p cbr -e 512 -c 2 -a 0 -i 8 -k AGT
+ -t 0.043344918 -s 17 -d -1 -p DSR -e 32 -c 2 -a 0 -i 9 -k RTR 
- -t 0.043344918 -s 17 -d -1 -p DSR -e 32 -c 2 -a 0 -i 9 -k RTR
h -t 0.043344918 -s 17 -d -1 -p DSR -e 32 -c 2 -a 0 -i 9 -k RTR
+ -t 0.045714286 -s 17 -d -1 -p cbr -e 512 -c 2 -a 0 -i 15 -k AGT 
- -t 0.045714286 -s 17 -d -1 -p cbr -e 512 -c 2 -a 0 -i 15 -k AGT
h -t 0.045714286 -s 17 -d -1 -p cbr -e 512 -c 2 -a 0 -i 15 -k AGT
+ -t 0.054857143 -s 17 -d -1 -p cbr -e 512 -c 2 -a 0 -i 17 -k AGT 
- -t 0.054857143 -s 17 -d -1 -p cbr -e 512 -c 2 -a 0 -i 17 -k AGT
h -t 0.054857143 -s 17 -d -1 -p cbr -e 512 -c 2 -a 0 -i 17 -k AGT
+ -t 0.064000000 -s 17 -d -1 -p cbr -e 512 -c 2 -a 0 -i 19 -k AGT 
- -t 0.064000000 -s 17 -d -1 -p cbr -e 512 -c 2 -a 0 -i 19 -k AGT
h -t 0.064000000 -s 17 -d -1 -p cbr -e 512 -c 2 -a 0 -i 19 -k AGT
+ -t 0.073142857 -s 17 -d -1 -p cbr -e 512 -c 2 -a 0 -i 21 -k AGT 
- -t 0.073142857 -s 17 -d -1 -p cbr -e 512 -c 2 -a 0 -i 21 -k AGT
h -t 0.073142857 -s 17 -d -1 -p cbr -e 512 -c 2 -a 0 -i 21 -k AGT
+ -t 0.082285714 -s 17 -d -1 -p cbr -e 512 -c 2 -a 0 -i 32 -k AGT 
- -t 0.082285714 -s 17 -d -1 -p cbr -e 512 -c 2 -a 0 -i 32 -k AGT
h -t 0.082285714 -s 17 -d -1 -p cbr -e 512 -c 2 -a 0 -i 32 -k AGT
+ -t 0.091428571 -s 17 -d -1 -p cbr -e 512 -c 2 -a 0 -i 34 -k AGT 
- -t 0.091428571 -s 17 -d -1 -p cbr -e 512 -c 2 -a 0 -i 34 -k AGT
h -t 0.091428571 -s 17 -d -1 -p cbr -e 512 -c 2 -a 0 -i 34 -k AGT
+ -t 0.100571429 -s 17 -d -1 -p cbr -e 512 -c 2 -a 0 -i 36 -k AGT 
- -t 0.100571429 -s 17 -d -1 -p cbr -e 512 -c 2 -a 0 -i 36 -k AGT
h -t 0.100571429 -s 17 -d -1 -p cbr -e 512 -c 2 -a 0 -i 36 -k AGT
+ -t 0.109714286 -s 17 -d -1 -p cbr -e 512 -c 2 -a 0 -i 38 -k AGT 
- -t 0.109714286 -s 17 -d -1 -p cbr -e 512 -c 2 -a 0 -i 38 -k AGT
h -t 0.109714286 -s 17 -d -1 -p cbr -e 512 -c 2 -a 0 -i 38 -k AGT
+ -t 0.118857143 -s 17 -d -1 -p cbr -e 512 -c 2 -a 0 -i 40 -k AGT 
- -t 0.118857143 -s 17 -d -1 -p cbr -e 512 -c 2 -a 0 -i 40 -k AGT
h -t 0.118857143 -s 17 -d -1 -p cbr -e 512 -c 2 -a 0 -i 40 -k AGT
+ -t 0.128000000 -s 17 -d -1 -p cbr -e 512 -c 2 -a 0 -i 42 -k AGT 
- -t 0.128000000 -s 17 -d -1 -p cbr -e 512 -c 2 -a 0 -i 42 -k AGT
h -t 0.128000000 -s 17 -d -1 -p cbr -e 512 -c 2 -a 0 -i 42 -k AGT
+ -t 0.137142857 -s 17 -d -1 -p cbr -e 512 -c 2 -a 0 -i 59 -k AGT 
- -t 0.137142857 -s 17 -d -1 -p cbr -e 512 -c 2 -a 0 -i 59 -k AGT
h -t 0.137142857 -s 17 -d -1 -p cbr -e 512 -c 2 -a 0 -i 59 -k AGT
+ -t 0.146285714 -s 17 -d -1 -p cbr -e 512 -c 2 -a 0 -i 61 -k AGT 
- -t 0.146285714 -s 17 -d -1 -p cbr -e 512 -c 2 -a 0 -i 61 -k AGT
h -t 0.146285714 -s 17 -d -1 -p cbr -e 512 -c 2 -a 0 -i 61 -k AGT
+ -t 0.155428571 -s 17 -d -1 -p cbr -e 512 -c 2 -a 0 -i 63 -k AGT 
- -t 0.155428571 -s 17 -d -1 -p cbr -e 512 -c 2 -a 0 -i 63 -k AGT
h -t 0.155428571 -s 17 -d -1 -p cbr -e 512 -c 2 -a 0 -i 63 -k AGT
+ -t 0.164571429 -s 17 -d -1 -p cbr -e 512 -c 2 -a 0 -i 65 -k AGT 
- -t 0.164571429 -s 17 -d -1 -p cbr -e 512 -c 2 -a 0 -i 65 -k AGT
h -t 0.164571429 -s 17 -d -1 -p cbr -e 512 -c 2 -a 0 -i 65 -k AGT
+ -t 0.173714286 -s 17 -d -1 -p cbr -e 512 -c 2 -a 0 -i 86 -k AGT 
- -t 0.173714286 -s 17 -d -1 -p cbr -e 512 -c 2 -a 0 -i 86 -k AGT
h -t 0.173714286 -s 17 -d -1 -p cbr -e 512 -c 2 -a 0 -i 86 -k AGT
+ -t 0.182857143 -s 17 -d -1 -p cbr -e 512 -c 2 -a 0 -i 88 -k AGT 
- -t 0.182857143 -s 17 -d -1 -p cbr -e 512 -c 2 -a 0 -i 88 -k AGT
h -t 0.182857143 -s 17 -d -1 -p cbr -e 512 -c 2 -a 0 -i 88 -k AGT
+ -t 0.192000000 -s 17 -d -1 -p cbr -e 512 -c 2 -a 0 -i 90 -k AGT 
- -t 0.192000000 -s 17 -d -1 -p cbr -e 512 -c 2 -a 0 -i 90 -k AGT
h -t 0.192000000 -s 17 -d -1 -p cbr -e 512 -c 2 -a 0 -i 90 -k AGT
n -t 0.200000 -s 17 -x 2.000000 -y 2.000000 -U 19.508897 -V 15.633392 -T 15.223823
+ -t 0.201142857 -s 17 -d -1 -p cbr -e 512 -c 2 -a 0 -i 92 -k AGT 
- -t 0.201142857 -s 17 -d -1 -p cbr -e 512 -c 2 -a 0 -i 92 -k AGT
h -t 0.201142857 -s 17 -d -1 -p cbr -e 512 -c 2 -a 0 -i 92 -k AGT
+ -t 0.210285714 -s 17 -d -1 -p cbr -e 512 -c 2 -a 0 -i 117 -k AGT 
- -t 0.210285714 -s 17 -d -1 -p cbr -e 512 -c 2 -a 0 -i 117 -k AGT
h -t 0.210285714 -s 17 -d -1 -p cbr -e 512 -c 2 -a 0 -i 117 -k AGT
+ -t 0.219428571 -s 17 -d -1 -p cbr -e 512 -c 2 -a 0 -i 119 -k AGT 
- -t 0.219428571 -s 17 -d -1 -p cbr -e 512 -c 2 -a 0 -i 119 -k AGT
h -t 0.219428571 -s 17 -d -1 -p cbr -e 512 -c 2 -a 0 -i 119 -k AGT
+ -t 0.228571429 -s 17 -d -1 -p cbr -e 512 -c 2 -a 0 -i 121 -k AGT 
- -t 0.228571429 -s 17 -d -1 -p cbr -e 512 -c 2 -a 0 -i 121 -k AGT
h -t 0.228571429 -s 17 -d -1 -p cbr -e 512 -c 2 -a 0 -i 121 -k AGT
+ -t 0.237714286 -s 17 -d -1 -p cbr -e 512 -c 2 -a 0 -i 123 -k AGT 
- -t 0.237714286 -s 17 -d -1 -p cbr -e 512 -c 2 -a 0 -i 123 -k AGT
h -t 0.237714286 -s 17 -d -1 -p cbr -e 512 -c 2 -a 0 -i 123 -k AGT
+ -t 0.246857143 -s 17 -d -1 -p cbr -e 512 -c 2 -a 0 -i 152 -k AGT 
- -t 0.246857143 -s 17 -d -1 -p cbr -e 512 -c 2 -a 0 -i 152 -k AGT
h -t 0.246857143 -s 17 -d -1 -p cbr -e 512 -c 2 -a 0 -i 152 -k AGT
+ -t 0.256000000 -s 17 -d -1 -p cbr -e 512 -c 2 -a 0 -i 154 -k AGT 
- -t 0.256000000 -s 17 -d -1 -p cbr -e 512 -c 2 -a 0 -i 154 -k AGT
h -t 0.256000000 -s 17 -d -1 -p cbr -e 512 -c 2 -a 0 -i 154 -k AGT
+ -t 0.265142857 -s 17 -d -1 -p cbr -e 512 -c 2 -a 0 -i 156 -k AGT 
- -t 0.265142857 -s 17 -d -1 -p cbr -e 512 -c 2 -a 0 -i 156 -k AGT
h -t 0.265142857 -s 17 -d -1 -p cbr -e 512 -c 2 -a 0 -i 156 -k AGT
+ -t 0.274285714 -s 17 -d -1 -p cbr -e 512 -c 2 -a 0 -i 158 -k AGT 
- -t 0.274285714 -s 17 -d -1 -p cbr -e 512 -c 2 -a 0 -i 158 -k AGT
h -t 0.274285714 -s 17 -d -1 -p cbr -e 512 -c 2 -a 0 -i 158 -k AGT
+ -t 0.283428571 -s 17 -d -1 -p cbr -e 512 -c 2 -a 0 -i 191 -k AGT 
- -t 0.283428571 -s 17 -d -1 -p cbr -e 512 -c 2 -a 0 -i 191 -k AGT
h -t 0.283428571 -s 17 -d -1 -p cbr -e 512 -c 2 -a 0 -i 191 -k AGT
+ -t 0.292571429 -s 17 -d -1 -p cbr -e 512 -c 2 -a 0 -i 193 -k AGT 
- -t 0.292571429 -s 17 -d -1 -p cbr -e 512 -c 2 -a 0 -i 193 -k AGT
h -t 0.292571429 -s 17 -d -1 -p cbr -e 512 -c 2 -a 0 -i 193 -k AGT
+ -t 0.301714286 -s 17 -d -1 -p cbr -e 512 -c 2 -a 0 -i 195 -k AGT 
- -t 0.301714286 -s 17 -d -1 -p cbr -e 512 -c 2 -a 0 -i 195 -k AGT
h -t 0.301714286 -s 17 -d -1 -p cbr -e 512 -c 2 -a 0 -i 195 -k AGT
+ -t 0.310857143 -s 17 -d -1 -p cbr -e 512 -c 2 -a 0 -i 197 -k AGT 
- -t 0.310857143 -s 17 -d -1 -p cbr -e 512 -c 2 -a 0 -i 197 -k AGT
h -t 0.310857143 -s 17 -d -1 -p cbr -e 512 -c 2 -a 0 -i 197 -k AGT
+ -t 0.320000000 -s 17 -d -1 -p cbr -e 512 -c 2 -a 0 -i 199 -k AGT 
- -t 0.320000000 -s 17 -d -1 -p cbr -e 512 -c 2 -a 0 -i 199 -k AGT
h -t 0.320000000 -s 17 -d -1 -p cbr -e 512 -c 2 -a 0 -i 199 -k AGT
+ -t 0.329142857 -s 17 -d -1 -p cbr -e 512 -c 2 -a 0 -i 237 -k AGT 
- -t 0.329142857 -s 17 -d -1 -p cbr -e 512 -c 2 -a 0 -i 237 -k AGT
h -t 0.329142857 -s 17 -d -1 -p cbr -e 512 -c 2 -a 0 -i 237 -k AGT
+ -t 0.338285714 -s 17 -d -1 -p cbr -e 512 -c 2 -a 0 -i 239 -k AGT 
- -t 0.338285714 -s 17 -d -1 -p cbr -e 512 -c 2 -a 0 -i 239 -k AGT
h -t 0.338285714 -s 17 -d -1 -p cbr -e 512 -c 2 -a 0 -i 239 -k AGT
+ -t 0.347428571 -s 17 -d -1 -p cbr -e 512 -c 2 -a 0 -i 241 -k AGT 
- -t 0.347428571 -s 17 -d -1 -p cbr -e 512 -c 2 -a 0 -i 241 -k AGT
h -t 0.347428571 -s 17 -d -1 -p cbr -e 512 -c 2 -a 0 -i 241 -k AGT
+ -t 0.356571429 -s 17 -d -1 -p cbr -e 512 -c 2 -a 0 -i 243 -k AGT 
- -t 0.356571429 -s 17 -d -1 -p cbr -e 512 -c 2 -a 0 -i 243 -k AGT
h -t 0.356571429 -s 17 -d -1 -p cbr -e 512 -c 2 -a 0 -i 243 -k AGT
+ -t 0.365714286 -s 17 -d -1 -p cbr -e 512 -c 2 -a 0 -i 245 -k AGT 
- -t 0.365714286 -s 17 -d -1 -p cbr -e 512 -c 2 -a 0 -i 245 -k AGT
h -t 0.365714286 -s 17 -d -1 -p cbr -e 512 -c 2 -a 0 -i 245 -k AGT
+ -t 0.374857143 -s 17 -d -1 -p cbr -e 512 -c 2 -a 0 -i 247 -k AGT 
- -t 0.374857143 -s 17 -d -1 -p cbr -e 512 -c 2 -a 0 -i 247 -k AGT
h -t 0.374857143 -s 17 -d -1 -p cbr -e 512 -c 2 -a 0 -i 247 -k AGT
+ -t 0.384000000 -s 17 -d -1 -p cbr -e 512 -c 2 -a 0 -i 291 -k AGT 
- -t 0.384000000 -s 17 -d -1 -p cbr -e 512 -c 2 -a 0 -i 291 -k AGT
h -t 0.384000000 -s 17 -d -1 -p cbr -e 512 -c 2 -a 0 -i 291 -k AGT
+ -t 0.393142857 -s 17 -d -1 -p cbr -e 512 -c 2 -a 0 -i 293 -k AGT 
- -t 0.393142857 -s 17 -d -1 -p cbr -e 512 -c 2 -a 0 -i 293 -k AGT
h -t 0.393142857 -s 17 -d -1 -p cbr -e 512 -c 2 -a 0 -i 293 -k AGT
+ -t 0.402285714 -s 17 -d -1 -p cbr -e 512 -c 2 -a 0 -i 295 -k AGT 
- -t 0.402285714 -s 17 -d -1 -p cbr -e 512 -c 2 -a 0 -i 295 -k AGT
h -t 0.402285714 -s 17 -d -1 -p cbr -e 512 -c 2 -a 0 -i 295 -k AGT
+ -t 0.411428571 -s 17 -d -1 -p cbr -e 512 -c 2 -a 0 -i 297 -k AGT 
- -t 0.411428571 -s 17 -d -1 -p cbr -e 512 -c 2 -a 0 -i 297 -k AGT
h -t 0.411428571 -s 17 -d -1 -p cbr -e 512 -c 2 -a 0 -i 297 -k AGT
+ -t 0.420571429 -s 17 -d -1 -p cbr -e 512 -c 2 -a 0 -i 345 -k AGT 
- -t 0.420571429 -s 17 -d -1 -p cbr -e 512 -c 2 -a 0 -i 345 -k AGT
h -t 0.420571429 -s 17 -d -1 -p cbr -e 512 -c 2 -a 0 -i 345 -k AGT
+ -t 0.429714286 -s 17 -d -1 -p cbr -e 512 -c 2 -a 0 -i 347 -k AGT 
- -t 0.429714286 -s 17 -d -1 -p cbr -e 512 -c 2 -a 0 -i 347 -k AGT
h -t 0.429714286 -s 17 -d -1 -p cbr -e 512 -c 2 -a 0 -i 347 -k AGT
+ -t 0.438857143 -s 17 -d -1 -p cbr -e 512 -c 2 -a 0 -i 349 -k AGT 
- -t 0.438857143 -s 17 -d -1 -p cbr -e 512 -c 2 -a 0 -i 349 -k AGT
h -t 0.438857143 -s 17 -d -1 -p cbr -e 512 -c 2 -a 0 -i 349 -k AGT
+ -t 0.448000000 -s 17 -d -1 -p cbr -e 512 -c 2 -a 0 -i 351 -k AGT 
- -t 0.448000000 -s 17 -d -1 -p cbr -e 512 -c 2 -a 0 -i 351 -k AGT
h -t 0.448000000 -s 17 -d -1 -p cbr -e 512 -c 2 -a 0 -i 351 -k AGT
+ -t 0.457142857 -s 17 -d -1 -p cbr -e 512 -c 2 -a 0 -i 353 -k AGT 
- -t 0.457142857 -s 17 -d -1 -p cbr -e 512 -c 2 -a 0 -i 353 -k AGT
h -t 0.457142857 -s 17 -d -1 -p cbr -e 512 -c 2 -a 0 -i 353 -k AGT
+ -t 0.466285714 -s 17 -d -1 -p cbr -e 512 -c 2 -a 0 -i 355 -k AGT 
- -t 0.466285714 -s 17 -d -1 -p cbr -e 512 -c 2 -a 0 -i 355 -k AGT
h -t 0.466285714 -s 17 -d -1 -p cbr -e 512 -c 2 -a 0 -i 355 -k AGT
+ -t 0.475428571 -s 17 -d -1 -p cbr -e 512 -c 2 -a 0 -i 357 -k AGT 
- -t 0.475428571 -s 17 -d -1 -p cbr -e 512 -c 2 -a 0 -i 357 -k AGT
h -t 0.475428571 -s 17 -d -1 -p cbr -e 512 -c 2 -a 0 -i 357 -k AGT
+ -t 0.484571429 -s 17 -d -1 -p cbr -e 512 -c 2 -a 0 -i 412 -k AGT 
- -t 0.484571429 -s 17 -d -1 -p cbr -e 512 -c 2 -a 0 -i 412 -k AGT
h -t 0.484571429 -s 17 -d -1 -p cbr -e 512 -c 2 -a 0 -i 412 -k AGT
+ -t 0.493714286 -s 17 -d -1 -p cbr -e 512 -c 2 -a 0 -i 414 -k AGT 
- -t 0.493714286 -s 17 -d -1 -p cbr -e 512 -c 2 -a 0 -i 414 -k AGT
h -t 0.493714286 -s 17 -d -1 -p cbr -e 512 -c 2 -a 0 -i 414 -k AGT
+ -t 0.502857143 -s 17 -d -1 -p cbr -e 512 -c 2 -a 0 -i 416 -k AGT 
- -t 0.502857143 -s 17 -d -1 -p cbr -e 512 -c 2 -a 0 -i 416 -k AGT
h -t 0.502857143 -s 17 -d -1 -p cbr -e 512 -c 2 -a 0 -i 416 -k AGT
+ -t 0.512000000 -s 17 -d -1 -p cbr -e 512 -c 2 -a 0 -i 474 -k AGT 
- -t 0.512000000 -s 17 -d -1 -p cbr -e 512 -c 2 -a 0 -i 474 -k AGT
h -t 0.512000000 -s 17 -d -1 -p cbr -e 512 -c 2 -a 0 -i 474 -k AGT
+ -t 0.521142857 -s 17 -d -1 -p cbr -e 512 -c 2 -a 0 -i 476 -k AGT 
- -t 0.521142857 -s 17 -d -1 -p cbr -e 512 -c 2 -a 0 -i 476 -k AGT
h -t 0.521142857 -s 17 -d -1 -p cbr -e 512 -c 2 -a 0 -i 476 -k AGT
+ -t 0.530285714 -s 17 -d -1 -p cbr -e 512 -c 2 -a 0 -i 478 -k AGT 
- -t 0.530285714 -s 17 -d -1 -p cbr -e 512 -c 2 -a 0 -i 478 -k AGT
h -t 0.530285714 -s 17 -d -1 -p cbr -e 512 -c 2 -a 0 -i 478 -k AGT
+ -t 0.539428571 -s 17 -d -1 -p cbr -e 512 -c 2 -a 0 -i 480 -k AGT 
- -t 0.539428571 -s 17 -d -1 -p cbr -e 512 -c 2 -a 0 -i 480 -k AGT
h -t 0.539428571 -s 17 -d -1 -p cbr -e 512 -c 2 -a 0 -i 480 -k AGT
+ -t 0.548571429 -s 17 -d -1 -p cbr -e 512 -c 2 -a 0 -i 482 -k AGT 
- -t 0.548571429 -s 17 -d -1 -p cbr -e 512 -c 2 -a 0 -i 482 -k AGT
h -t 0.548571429 -s 17 -d -1 -p cbr -e 512 -c 2 -a 0 -i 482 -k AGT
+ -t 0.557714286 -s 17 -d -1 -p cbr -e 512 -c 2 -a 0 -i 545 -k AGT 
- -t 0.557714286 -s 17 -d -1 -p cbr -e 512 -c 2 -a 0 -i 545 -k AGT
h -t 0.557714286 -s 17 -d -1 -p cbr -e 512 -c 2 -a 0 -i 545 -k AGT
+ -t 0.566857143 -s 17 -d -1 -p cbr -e 512 -c 2 -a 0 -i 547 -k AGT 
- -t 0.566857143 -s 17 -d -1 -p cbr -e 512 -c 2 -a 0 -i 547 -k AGT
h -t 0.566857143 -s 17 -d -1 -p cbr -e 512 -c 2 -a 0 -i 547 -k AGT
+ -t 0.576000000 -s 17 -d -1 -p cbr -e 512 -c 2 -a 0 -i 549 -k AGT 
- -t 0.576000000 -s 17 -d -1 -p cbr -e 512 -c 2 -a 0 -i 549 -k AGT
h -t 0.576000000 -s 17 -d -1 -p cbr -e 512 -c 2 -a 0 -i 549 -k AGT
+ -t 0.585142857 -s 17 -d -1 -p cbr -e 512 -c 2 -a 0 -i 551 -k AGT 
- -t 0.585142857 -s 17 -d -1 -p cbr -e 512 -c 2 -a 0 -i 551 -k AGT
h -t 0.585142857 -s 17 -d -1 -p cbr -e 512 -c 2 -a 0 -i 551 -k AGT
d -t 0.585142857 -s 17 -d -1 -p cbr -e 532 -c 2 -a 0 -i 0 -k RTR
+ -t 0.594285714 -s 17 -d -1 -p cbr -e 512 -c 2 -a 0 -i 553 -k AGT 
- -t 0.594285714 -s 17 -d -1 -p cbr -e 512 -c 2 -a 0 -i 553 -k AGT
h -t 0.594285714 -s 17 -d -1 -p cbr -e 512 -c 2 -a 0 -i 553 -k AGT
d -t 0.594285714 -s 17 -d -1 -p cbr -e 532 -c 2 -a 0 -i 2 -k RTR
+ -t 0.603428571 -s 17 -d -1 -p cbr -e 512 -c 2 -a 0 -i 619 -k AGT 
- -t 0.603428571 -s 17 -d -1 -p cbr -e 512 -c 2 -a 0 -i 619 -k AGT
h -t 0.603428571 -s 17 -d -1 -p cbr -e 512 -c 2 -a 0 -i 619 -k AGT
d -t 0.603428571 -s 17 -d -1 -p cbr -e 532 -c 2 -a 0 -i 4 -k RTR
+ -t 0.612571429 -s 17 -d -1 -p cbr -e 512 -c 2 -a 0 -i 621 -k AGT 
- -t 0.612571429 -s 17 -d -1 -p cbr -e 512 -c 2 -a 0 -i 621 -k AGT
h -t 0.612571429 -s 17 -d -1 -p cbr -e 512 -c 2 -a 0 -i 621 -k AGT
d -t 0.612571429 -s 17 -d -1 -p cbr -e 532 -c 2 -a 0 -i 6 -k RTR
+ -t 0.621714286 -s 17 -d -1 -p cbr -e 512 -c 2 -a 0 -i 623 -k AGT 
- -t 0.621714286 -s 17 -d -1 -p cbr -e 512 -c 2 -a 0 -i 623 -k AGT
h -t 0.621714286 -s 17 -d -1 -p cbr -e 512 -c 2 -a 0 -i 623 -k AGT
d -t 0.621714286 -s 17 -d -1 -p cbr -e 532 -c 2 -a 0 -i 8 -k RTR
+ -t 0.630857143 -s 17 -d -1 -p cbr -e 512 -c 2 -a 0 -i 625 -k AGT 
- -t 0.630857143 -s 17 -d -1 -p cbr -e 512 -c 2 -a 0 -i 625 -k AGT
h -t 0.630857143 -s 17 -d -1 -p cbr -e 512 -c 2 -a 0 -i 625 -k AGT
d -t 0.630857143 -s 17 -d -1 -p cbr -e 532 -c 2 -a 0 -i 15 -k RTR
+ -t 0.640000000 -s 17 -d -1 -p cbr -e 512 -c 2 -a 0 -i 627 -k AGT 
- -t 0.640000000 -s 17 -d -1 -p cbr -e 512 -c 2 -a 0 -i 627 -k AGT
h -t 0.640000000 -s 17 -d -1 -p cbr -e 512 -c 2 -a 0 -i 627 -k AGT
d -t 0.640000000 -s 17 -d -1 -p cbr -e 532 -c 2 -a 0 -i 17 -k RTR
+ -t 0.649142857 -s 17 -d -1 -p cbr -e 512 -c 2 -a 0 -i 629 -k AGT 
- -t 0.649142857 -s 17 -d -1 -p cbr -e 512 -c 2 -a 0 -i 629 -k AGT
h -t 0.649142857 -s 17 -d -1 -p cbr -e 512 -c 2 -a 0 -i 629 -k AGT
d -t 0.649142857 -s 17 -d -1 -p cbr -e 532 -c 2 -a 0 -i 19 -k RTR
+ -t 0.658285714 -s 17 -d -1 -p cbr -e 512 -c 2 -a 0 -i 695 -k AGT 
- -t 0.658285714 -s 17 -d -1 -p cbr -e 512 -c 2 -a 0 -i 695 -k AGT
h -t 0.658285714 -s 17 -d -1 -p cbr -e 512 -c 2 -a 0 -i 695 -k AGT
d -t 0.658285714 -s 17 -d -1 -p cbr -e 532 -c 2 -a 0 -i 21 -k RTR
+ -t 0.667428571 -s 17 -d -1 -p cbr -e 512 -c 2 -a 0 -i 697 -k AGT 
- -t 0.667428571 -s 17 -d -1 -p cbr -e 512 -c 2 -a 0 -i 697 -k AGT
h -t 0.667428571 -s 17 -d -1 -p cbr -e 512 -c 2 -a 0 -i 697 -k AGT
d -t 0.667428571 -s 17 -d -1 -p cbr -e 532 -c 2 -a 0 -i 32 -k RTR
+ -t 0.676571429 -s 17 -d -1 -p cbr -e 512 -c 2 -a 0 -i 699 -k AGT 
- -t 0.676571429 -s 17 -d -1 -p cbr -e 512 -c 2 -a 0 -i 699 -k AGT
h -t 0.676571429 -s 17 -d -1 -p cbr -e 512 -c 2 -a 0 -i 699 -k AGT
d -t 0.676571429 -s 17 -d -1 -p cbr -e 532 -c 2 -a 0 -i 34 -k RTR
+ -t 0.685714286 -s 17 -d -1 -p cbr -e 512 -c 2 -a 0 -i 765 -k AGT 
- -t 0.685714286 -s 17 -d -1 -p cbr -e 512 -c 2 -a 0 -i 765 -k AGT
h -t 0.685714286 -s 17 -d -1 -p cbr -e 512 -c 2 -a 0 -i 765 -k AGT
d -t 0.685714286 -s 17 -d -1 -p cbr -e 532 -c 2 -a 0 -i 36 -k RTR
+ -t 0.694857143 -s 17 -d -1 -p cbr -e 512 -c 2 -a 0 -i 767 -k AGT 
- -t 0.694857143 -s 17 -d -1 -p cbr -e 512 -c 2 -a 0 -i 767 -k AGT
h -t 0.694857143 -s 17 -d -1 -p cbr -e 512 -c 2 -a 0 -i 767 -k AGT
d -t 0.694857143 -s 17 -d -1 -p cbr -e 532 -c 2 -a 0 -i 38 -k RTR
+ -t 0.704000000 -s 17 -d -1 -p cbr -e 512 -c 2 -a 0 -i 769 -k AGT 
- -t 0.704000000 -s 17 -d -1 -p cbr -e 512 -c 2 -a 0 -i 769 -k AGT
h -t 0.704000000 -s 17 -d -1 -p cbr -e 512 -c 2 -a 0 -i 769 -k AGT
d -t 0.704000000 -s 17 -d -1 -p cbr -e 532 -c 2 -a 0 -i 40 -k RTR
+ -t 0.713142857 -s 17 -d -1 -p cbr -e 512 -c 2 -a 0 -i 771 -k AGT 
- -t 0.713142857 -s 17 -d -1 -p cbr -e 512 -c 2 -a 0 -i 771 -k AGT
h -t 0.713142857 -s 17 -d -1 -p cbr -e 512 -c 2 -a 0 -i 771 -k AGT
d -t 0.713142857 -s 17 -d -1 -p cbr -e 532 -c 2 -a 0 -i 42 -k RTR
+ -t 0.722285714 -s 17 -d -1 -p cbr -e 512 -c 2 -a 0 -i 773 -k AGT 
- -t 0.722285714 -s 17 -d -1 -p cbr -e 512 -c 2 -a 0 -i 773 -k AGT
h -t 0.722285714 -s 17 -d -1 -p cbr -e 512 -c 2 -a 0 -i 773 -k AGT
d -t 0.722285714 -s 17 -d -1 -p cbr -e 532 -c 2 -a 0 -i 59 -k RTR
+ -t 0.731428571 -s 17 -d -1 -p cbr -e 512 -c 2 -a 0 -i 775 -k AGT 
- -t 0.731428571 -s 17 -d -1 -p cbr -e 512 -c 2 -a 0 -i 775 -k AGT
h -t 0.731428571 -s 17 -d -1 -p cbr -e 512 -c 2 -a 0 -i 775 -k AGT
d -t 0.731428571 -s 17 -d -1 -p cbr -e 532 -c 2 -a 0 -i 61 -k RTR
+ -t 0.740571429 -s 17 -d -1 -p cbr -e 512 -c 2 -a 0 -i 777 -k AGT 
- -t 0.740571429 -s 17 -d -1 -p cbr -e 512 -c 2 -a 0 -i 777 -k AGT
h -t 0.740571429 -s 17 -d -1 -p cbr -e 512 -c 2 -a 0 -i 777 -k AGT
d -t 0.740571429 -s 17 -d -1 -p cbr -e 532 -c 2 -a 0 -i 63 -k RTR
+ -t 0.749714286 -s 17 -d -1 -p cbr -e 512 -c 2 -a 0 -i 843 -k AGT 
- -t 0.749714286 -s 17 -d -1 -p cbr -e 512 -c 2 -a 0 -i 843 -k AGT
h -t 0.749714286 -s 17 -d -1 -p cbr -e 512 -c 2 -a 0 -i 843 -k AGT
d -t 0.749714286 -s 17 -d -1 -p cbr -e 532 -c 2 -a 0 -i 65 -k RTR
+ -t 0.758857143 -s 17 -d -1 -p cbr -e 512 -c 2 -a 0 -i 845 -k AGT 
- -t 0.758857143 -s 17 -d -1 -p cbr -e 512 -c 2 -a 0 -i 845 -k AGT
h -t 0.758857143 -s 17 -d -1 -p cbr -e 512 -c 2 -a 0 -i 845 -k AGT
d -t 0.758857143 -s 17 -d -1 -p cbr -e 532 -c 2 -a 0 -i 86 -k RTR
+ -t 0.768000000 -s 17 -d -1 -p cbr -e 512 -c 2 -a 0 -i 847 -k AGT 
- -t 0.768000000 -s 17 -d -1 -p cbr -e 512 -c 2 -a 0 -i 847 -k AGT
h -t 0.768000000 -s 17 -d -1 -p cbr -e 512 -c 2 -a 0 -i 847 -k AGT
d -t 0.768000000 -s 17 -d -1 -p cbr -e 532 -c 2 -a 0 -i 88 -k RTR
+ -t 0.777142857 -s 17 -d -1 -p cbr -e 512 -c 2 -a 0 -i 849 -k AGT 
- -t 0.777142857 -s 17 -d -1 -p cbr -e 512 -c 2 -a 0 -i 849 -k AGT
h -t 0.777142857 -s 17 -d -1 -p cbr -e 512 -c 2 -a 0 -i 849 -k AGT
d -t 0.777142857 -s 17 -d -1 -p cbr -e 532 -c 2 -a 0 -i 90 -k RTR
+ -t 0.786285714 -s 17 -d -1 -p cbr -e 512 -c 2 -a 0 -i 915 -k AGT 
- -t 0.786285714 -s 17 -d -1 -p cbr -e 512 -c 2 -a 0 -i 915 -k AGT
h -t 0.786285714 -s 17 -d -1 -p cbr -e 512 -c 2 -a 0 -i 915 -k AGT
d -t 0.786285714 -s 17 -d -1 -p cbr -e 532 -c 2 -a 0 -i 92 -k RTR
+ -t 0.795428571 -s 17 -d -1 -p cbr -e 512 -c 2 -a 0 -i 917 -k AGT 
- -t 0.795428571 -s 17 -d -1 -p cbr -e 512 -c 2 -a 0 -i 917 -k AGT
h -t 0.795428571 -s 17 -d -1 -p cbr -e 512 -c 2 -a 0 -i 917 -k AGT
d -t 0.795428571 -s 17 -d -1 -p cbr -e 532 -c 2 -a 0 -i 117 -k RTR
+ -t 0.804571429 -s 17 -d -1 -p cbr -e 512 -c 2 -a 0 -i 919 -k AGT 
- -t 0.804571429 -s 17 -d -1 -p cbr -e 512 -c 2 -a 0 -i 919 -k AGT
h -t 0.804571429 -s 17 -d -1 -p cbr -e 512 -c 2 -a 0 -i 919 -k AGT
d -t 0.804571429 -s 17 -d -1 -p cbr -e 532 -c 2 -a 0 -i 119 -k RTR
+ -t 0.813714286 -s 17 -d -1 -p cbr -e 512 -c 2 -a 0 -i 921 -k AGT 
- -t 0.813714286 -s 17 -d -1 -p cbr -e 512 -c 2 -a 0 -i 921 -k AGT
h -t 0.813714286 -s 17 -d -1 -p cbr -e 512 -c 2 -a 0 -i 921 -k AGT
d -t 0.813714286 -s 17 -d -1 -p cbr -e 532 -c 2 -a 0 -i 121 -k RTR
+ -t 0.822857143 -s 17 -d -1 -p cbr -e 512 -c 2 -a 0 -i 923 -k AGT 
- -t 0.822857143 -s 17 -d -1 -p cbr -e 512 -c 2 -a 0 -i 923 -k AGT
h -t 0.822857143 -s 17 -d -1 -p cbr -e 512 -c 2 -a 0 -i 923 -k AGT
d -t 0.822857143 -s 17 -d -1 -p cbr -e 532 -c 2 -a 0 -i 123 -k RTR
+ -t 0.832000000 -s 17 -d -1 -p cbr -e 512 -c 2 -a 0 -i 925 -k AGT 
- -t 0.832000000 -s 17 -d -1 -p cbr -e 512 -c 2 -a 0 -i 925 -k AGT
h -t 0.832000000 -s 17 -d -1 -p cbr -e 512 -c 2 -a 0 -i 925 -k AGT
d -t 0.832000000 -s 17 -d -1 -p cbr -e 532 -c 2 -a 0 -i 152 -k RTR
+ -t 0.841142857 -s 17 -d -1 -p cbr -e 512 -c 2 -a 0 -i 991 -k AGT 
- -t 0.841142857 -s 17 -d -1 -p cbr -e 512 -c 2 -a 0 -i 991 -k AGT
h -t 0.841142857 -s 17 -d -1 -p cbr -e 512 -c 2 -a 0 -i 991 -k AGT
d -t 0.841142857 -s 17 -d -1 -p cbr -e 532 -c 2 -a 0 -i 154 -k RTR
+ -t 0.850285714 -s 17 -d -1 -p cbr -e 512 -c 2 -a 0 -i 993 -k AGT 
- -t 0.850285714 -s 17 -d -1 -p cbr -e 512 -c 2 -a 0 -i 993 -k AGT
h -t 0.850285714 -s 17 -d -1 -p cbr -e 512 -c 2 -a 0 -i 993 -k AGT
d -t 0.850285714 -s 17 -d -1 -p cbr -e 532 -c 2 -a 0 -i 156 -k RTR
+ -t 0.859428571 -s 17 -d -1 -p cbr -e 512 -c 2 -a 0 -i 995 -k AGT 
- -t 0.859428571 -s 17 -d -1 -p cbr -e 512 -c 2 -a 0 -i 995 -k AGT
h -t 0.859428571 -s 17 -d -1 -p cbr -e 512 -c 2 -a 0 -i 995 -k AGT
d -t 0.859428571 -s 17 -d -1 -p cbr -e 532 -c 2 -a 0 -i 158 -k RTR
+ -t 0.868571429 -s 17 -d -1 -p cbr -e 512 -c 2 -a 0 -i 997 -k AGT 
- -t 0.868571429 -s 17 -d -1 -p cbr -e 512 -c 2 -a 0 -i 997 -k AGT
h -t 0.868571429 -s 17 -d -1 -p cbr -e 512 -c 2 -a 0 -i 997 -k AGT
d -t 0.868571429 -s 17 -d -1 -p cbr -e 532 -c 2 -a 0 -i 191 -k RTR
+ -t 0.877714286 -s 17 -d -1 -p cbr -e 512 -c 2 -a 0 -i 1063 -k AGT 
- -t 0.877714286 -s 17 -d -1 -p cbr -e 512 -c 2 -a 0 -i 1063 -k AGT
h -t 0.877714286 -s 17 -d -1 -p cbr -e 512 -c 2 -a 0 -i 1063 -k AGT
d -t 0.877714286 -s 17 -d -1 -p cbr -e 532 -c 2 -a 0 -i 193 -k RTR
+ -t 0.886857143 -s 17 -d -1 -p cbr -e 512 -c 2 -a 0 -i 1065 -k AGT 
- -t 0.886857143 -s 17 -d -1 -p cbr -e 512 -c 2 -a 0 -i 1065 -k AGT
h -t 0.886857143 -s 17 -d -1 -p cbr -e 512 -c 2 -a 0 -i 1065 -k AGT
d -t 0.886857143 -s 17 -d -1 -p cbr -e 532 -c 2 -a 0 -i 195 -k RTR
+ -t 0.896000000 -s 17 -d -1 -p cbr -e 512 -c 2 -a 0 -i 1067 -k AGT 
- -t 0.896000000 -s 17 -d -1 -p cbr -e 512 -c 2 -a 0 -i 1067 -k AGT
h -t 0.896000000 -s 17 -d -1 -p cbr -e 512 -c 2 -a 0 -i 1067 -k AGT
d -t 0.896000000 -s 17 -d -1 -p cbr -e 532 -c 2 -a 0 -i 197 -k RTR
+ -t 0.905142857 -s 17 -d -1 -p cbr -e 512 -c 2 -a 0 -i 1069 -k AGT 
- -t 0.905142857 -s 17 -d -1 -p cbr -e 512 -c 2 -a 0 -i 1069 -k AGT
h -t 0.905142857 -s 17 -d -1 -p cbr -e 512 -c 2 -a 0 -i 1069 -k AGT
d -t 0.905142857 -s 17 -d -1 -p cbr -e 532 -c 2 -a 0 -i 199 -k RTR
+ -t 0.914285714 -s 17 -d -1 -p cbr -e 512 -c 2 -a 0 -i 1135 -k AGT 
- -t 0.914285714 -s 17 -d -1 -p cbr -e 512 -c 2 -a 0 -i 1135 -k AGT
h -t 0.914285714 -s 17 -d -1 -p cbr -e 512 -c 2 -a 0 -i 1135 -k AGT
d -t 0.914285714 -s 17 -d -1 -p cbr -e 532 -c 2 -a 0 -i 237 -k RTR
+ -t 0.923428571 -s 17 -d -1 -p cbr -e 512 -c 2 -a 0 -i 1137 -k AGT 
- -t 0.923428571 -s 17 -d -1 -p cbr -e 512 -c 2 -a 0 -i 1137 -k AGT
h -t 0.923428571 -s 17 -d -1 -p cbr -e 512 -c 2 -a 0 -i 1137 -k AGT
d -t 0.923428571 -s 17 -d -1 -p cbr -e 532 -c 2 -a 0 -i 239 -k RTR
+ -t 0.932571429 -s 17 -d -1 -p cbr -e 512 -c 2 -a 0 -i 1139 -k AGT 
- -t 0.932571429 -s 17 -d -1 -p cbr -e 512 -c 2 -a 0 -i 1139 -k AGT
h -t 0.932571429 -s 17 -d -1 -p cbr -e 512 -c 2 -a 0 -i 1139 -k AGT
d -t 0.932571429 -s 17 -d -1 -p cbr -e 532 -c 2 -a 0 -i 241 -k RTR
+ -t 0.941714286 -s 17 -d -1 -p cbr -e 512 -c 2 -a 0 -i 1141 -k AGT 
- -t 0.941714286 -s 17 -d -1 -p cbr -e 512 -c 2 -a 0 -i 1141 -k AGT
h -t 0.941714286 -s 17 -d -1 -p cbr -e 512 -c 2 -a 0 -i 1141 -k AGT
d -t 0.941714286 -s 17 -d -1 -p cbr -e 532 -c 2 -a 0 -i 243 -k RTR
+ -t 0.950857143 -s 17 -d -1 -p cbr -e 512 -c 2 -a 0 -i 1143 -k AGT 
- -t 0.950857143 -s 17 -d -1 -p cbr -e 512 -c 2 -a 0 -i 1143 -k AGT
h -t 0.950857143 -s 17 -d -1 -p cbr -e 512 -c 2 -a 0 -i 1143 -k AGT
d -t 0.950857143 -s 17 -d -1 -p cbr -e 532 -c 2 -a 0 -i 245 -k RTR
+ -t 0.960000000 -s 17 -d -1 -p cbr -e 512 -c 2 -a 0 -i 1209 -k AGT 
- -t 0.960000000 -s 17 -d -1 -p cbr -e 512 -c 2 -a 0 -i 1209 -k AGT
h -t 0.960000000 -s 17 -d -1 -p cbr -e 512 -c 2 -a 0 -i 1209 -k AGT
d -t 0.960000000 -s 17 -d -1 -p cbr -e 532 -c 2 -a 0 -i 247 -k RTR
+ -t 0.969142857 -s 17 -d -1 -p cbr -e 512 -c 2 -a 0 -i 1211 -k AGT 
- -t 0.969142857 -s 17 -d -1 -p cbr -e 512 -c 2 -a 0 -i 1211 -k AGT
h -t 0.969142857 -s 17 -d -1 -p cbr -e 512 -c 2 -a 0 -i 1211 -k AGT
d -t 0.969142857 -s 17 -d -1 -p cbr -e 532 -c 2 -a 0 -i 291 -k RTR
+ -t 0.978285714 -s 17 -d -1 -p cbr -e 512 -c 2 -a 0 -i 1213 -k AGT 
- -t 0.978285714 -s 17 -d -1 -p cbr -e 512 -c 2 -a 0 -i 1213 -k AGT
h -t 0.978285714 -s 17 -d -1 -p cbr -e 512 -c 2 -a 0 -i 1213 -k AGT
d -t 0.978285714 -s 17 -d -1 -p cbr -e 532 -c 2 -a 0 -i 293 -k RTR
+ -t 0.987428571 -s 17 -d -1 -p cbr -e 512 -c 2 -a 0 -i 1215 -k AGT 
- -t 0.987428571 -s 17 -d -1 -p cbr -e 512 -c 2 -a 0 -i 1215 -k AGT
h -t 0.987428571 -s 17 -d -1 -p cbr -e 512 -c 2 -a 0 -i 1215 -k AGT
d -t 0.987428571 -s 17 -d -1 -p cbr -e 532 -c 2 -a 0 -i 295 -k RTR
+ -t 0.996571429 -s 17 -d -1 -p cbr -e 512 -c 2 -a 0 -i 1281 -k AGT 
- -t 0.996571429 -s 17 -d -1 -p cbr -e 512 -c 2 -a 0 -i 1281 -k AGT
h -t 0.996571429 -s 17 -d -1 -p cbr -e 512 -c 2 -a 0 -i 1281 -k AGT
d -t 0.996571429 -s 17 -d -1 -p cbr -e 532 -c 2 -a 0 -i 297 -k RTR
+ -t 1.005714286 -s 17 -d -1 -p cbr -e 512 -c 2 -a 0 -i 1283 -k AGT 
- -t 1.005714286 -s 17 -d -1 -p cbr -e 512 -c 2 -a 0 -i 1283 -k AGT
h -t 1.005714286 -s 17 -d -1 -p cbr -e 512 -c 2 -a 0 -i 1283 -k AGT
d -t 1.005714286 -s 17 -d -1 -p cbr -e 532 -c 2 -a 0 -i 345 -k RTR
+ -t 1.014857143 -s 17 -d -1 -p cbr -e 512 -c 2 -a 0 -i 1285 -k AGT 
- -t 1.014857143 -s 17 -d -1 -p cbr -e 512 -c 2 -a 0 -i 1285 -k AGT
h -t 1.014857143 -s 17 -d -1 -p cbr -e 512 -c 2 -a 0 -i 1285 -k AGT
d -t 1.014857143 -s 17 -d -1 -p cbr -e 532 -c 2 -a 0 -i 347 -k RTR
+ -t 1.024000000 -s 17 -d -1 -p cbr -e 512 -c 2 -a 0 -i 1287 -k AGT 
- -t 1.024000000 -s 17 -d -1 -p cbr -e 512 -c 2 -a 0 -i 1287 -k AGT
h -t 1.024000000 -s 17 -d -1 -p cbr -e 512 -c 2 -a 0 -i 1287 -k AGT
d -t 1.024000000 -s 17 -d -1 -p cbr -e 532 -c 2 -a 0 -i 349 -k RTR
+ -t 1.033142857 -s 17 -d -1 -p cbr -e 512 -c 2 -a 0 -i 1353 -k AGT 
- -t 1.033142857 -s 17 -d -1 -p cbr -e 512 -c 2 -a 0 -i 1353 -k AGT
h -t 1.033142857 -s 17 -d -1 -p cbr -e 512 -c 2 -a 0 -i 1353 -k AGT
d -t 1.033142857 -s 17 -d -1 -p cbr -e 532 -c 2 -a 0 -i 351 -k RTR
+ -t 1.042285714 -s 17 -d -1 -p cbr -e 512 -c 2 -a 0 -i 1355 -k AGT 
- -t 1.042285714 -s 17 -d -1 -p cbr -e 512 -c 2 -a 0 -i 1355 -k AGT
h -t 1.042285714 -s 17 -d -1 -p cbr -e 512 -c 2 -a 0 -i 1355 -k AGT
d -t 1.042285714 -s 17 -d -1 -p cbr -e 532 -c 2 -a 0 -i 353 -k RTR
+ -t 1.051428571 -s 17 -d -1 -p cbr -e 512 -c 2 -a 0 -i 1357 -k AGT 
- -t 1.051428571 -s 17 -d -1 -p cbr -e 512 -c 2 -a 0 -i 1357 -k AGT
h -t 1.051428571 -s 17 -d -1 -p cbr -e 512 -c 2 -a 0 -i 1357 -k AGT
d -t 1.051428571 -s 17 -d -1 -p cbr -e 532 -c 2 -a 0 -i 355 -k RTR
+ -t 1.060571429 -s 17 -d -1 -p cbr -e 512 -c 2 -a 0 -i 1359 -k AGT 
- -t 1.060571429 -s 17 -d -1 -p cbr -e 512 -c 2 -a 0 -i 1359 -k AGT
h -t 1.060571429 -s 17 -d -1 -p cbr -e 512 -c 2 -a 0 -i 1359 -k AGT
d -t 1.060571429 -s 17 -d -1 -p cbr -e 532 -c 2 -a 0 -i 357 -k RTR
+ -t 1.069714286 -s 17 -d -1 -p cbr -e 512 -c 2 -a 0 -i 1425 -k AGT 
- -t 1.069714286 -s 17 -d -1 -p cbr -e 512 -c 2 -a 0 -i 1425 -k AGT
h -t 1.069714286 -s 17 -d -1 -p cbr -e 512 -c 2 -a 0 -i 1425 -k AGT
d -t 1.069714286 -s 17 -d -1 -p cbr -e 532 -c 2 -a 0 -i 412 -k RTR
+ -t 1.078857143 -s 17 -d -1 -p cbr -e 512 -c 2 -a 0 -i 1427 -k AGT 
- -t 1.078857143 -s 17 -d -1 -p cbr -e 512 -c 2 -a 0 -i 1427 -k AGT
h -t 1.078857143 -s 17 -d -1 -p cbr -e 512 -c 2 -a 0 -i 1427 -k AGT