n -t * -s 0  -x 328.28704759134308 -y 178.28149463103199 -Z 0 -z 10  -v circle -c green
n -t * -s 1  -x 271.74104006769437 -y 178.30955993201493 -Z 0 -z 10  -v circle -c green
n -t * -s 2  -x 271.66794567943367 -y 121.76359268645393 -Z 0 -z 10  -v circle -c green
n -t * -s 3  -x 328.21383678905477 -y 121.64546925726722 -Z 0 -z 10  -v circle -c green
n -t * -s 4  -x 356.75397836852227 -y 206.38249674628918 -Z 0 -z 10  -v circle -c green
n -t * -s 5  -x 243.66271583972087 -y 206.79885926181936 -Z 0 -z 10  -v circle -c green
n -t * -s 6  -x 243.15629586310365 -y 93.707964151249655 -Z 0 -z 10  -v circle -c green
n -t * -s 7  -x 356.2467518403966 -y 93.111487034684757 -Z 0 -z 10  -v circle -c green
n -t * -s 8  -x 385.39992857799194 -y 234.30214824590104 -Z 0 -z 10  -v circle -c green
n -t * -s 9  -x 215.76588472784778 -y 235.46703355281363 -Z 0 -z 10  -v circle -c green
n -t * -s 10  -x 214.46591567011586 -y 65.83397111750925 -Z 0 -z 10  -v circle -c green
n -t * -s 11  -x 384.09788912009208 -y 64.398919133315289 -Z 0 -z 10  -v circle -c green
n -t * -s 12  -x 414.22403082763952 -y 262.03959470422257 -Z 0 -z 10  -v circle -c green
n -t * -s 13  -x 188.05140046672182 -y 264.3132147327583 -Z 0 -z 10  -v circle -c green
n -t * -s 14  -x 185.59767385228548 -y 38.142466628340358 -Z 0 -z 10  -v circle -c green
n -t * -s 15  -x 411.76639627711535 -y 35.508634984000565 -Z 0 -z 10  -v circle -c green
n -t * -s 16  -x 300 -y 150 -Z 0 -z 10  -v circle -c green
n -t * -s 17  -x 2 -y 2 -Z 0 -z 10  -v circle -c green
n -t * -s 18  -x 250 -y 150 -Z 0 -z 10  -v circle -c green
n -t * -s 19  -x 136.96416027077754 -y 263.23823972805974 -Z 0 -z 10  -v circle -c green
n -t * -s 20  -x 136.67178271773457 -y 37.05437074581576 -Z 0 -z 10  -v circle -c green
V -t * -v 1.0a5 -a 0
W -t * -x 500 -y 250
A -t * -n 1 -p 0 -o 0x7fffffff -c 30 -a 1
A -t * -h 1 -m 1073741823 -s 0
+ -t 0.000000000 -s 17 -d -1 -p cbr -e 512 -c 2 -a 0 -i 0 -k AGT 
- -t 0.000000000 -s 17 -d -1 -p cbr -e 512 -c 2 -a 0 -i 0 -k AGT
h -t 0.000000000 -s 17 -d -1 -p cbr -e 512 -c 2 -a 0 -i 0 -k AGT
+ -t 0.003487410 -s 17 -d -1 -p DSR -e 32 -c 2 -a 0 -i 1 -k RTR 
- -t 0.003487410 -s 17 -d -1 -p DSR -e 32 -c 2 -a 0 -i 1 -k RTR
h -t 0.003487410 -s 17 -d -1 -p DSR -e 32 -c 2 -a 0 -i 1 -k RTR
+ -t 0.009142857 -s 17 -d -1 -p cbr -e 512 -c 2 -a 0 -i 2 -k AGT 
- -t 0.009142857 -s 17 -d -1 -p cbr -e 512 -c 2 -a 0 -i 2 -k AGT
h -t 0.009142857 -s 17 -d -1 -p cbr -e 512 -c 2 -a 0 -i 2 -k AGT
+ -t 0.018285714 -s 17 -d -1 -p cbr -e 512 -c 2 -a 0 -i 4 -k AGT 
- -t 0.018285714 -s 17 -d -1 -p cbr -e 512 -c 2 -a 0 -i 4 -k AGT
h -t 0.018285714 -s 17 -d -1 -p cbr -e 512 -c 2 -a 0 -i 4 -k AGT
+ -t 0.027428571 -s 17 -d -1 -p cbr -e 512 -c 2 -a 0 -i 6 -k AGT 
- -t 0.027428571 -s 17 -d -1 -p cbr -e 512 -c 2 -a 0 -i 6 -k AGT
h -t 0.027428571 -s 17 -d -1 -p cbr -e 512 -c 2 -a 0 -i 6 -k AGT
+ -t 0.036571429 -s 17 -d -1 -p cbr -e 512 -c 2 -a 0 -i 8 -k AGT 
- -t 0.036571429 -s 17 -d -1 -p cbr -e 512 -c 2 -a 0 -i 8 -k AGT
h -t 0.036571429 -s 17 -d -1 -p cbr -e 512 -c 2 -a 0 -i 8 -k AGT
+ -t 0.043344918 -s 17 -d -1 -p DSR -e 32 -c 2 -a 0 -i 9 -k RTR 
- -t 0.043344918 -s 17 -d -1 -p DSR -e 32 -c 2 -a 0 -i 9 -k RTR
h -t 0.043344918 -s 17 -d -1 -p DSR -e 32 -c 2 -a 0 -i 9 -k RTR
+ -t 0.045385971 -s 10 -d -1 -p DSR -e 48 -c 2 -a 0 -i 9 -k RTR 
- -t 0.045385971 -s 10 -d -1 -p DSR -e 48 -c 2 -a 0 -i 9 -k RTR
h -t 0.045385971 -s 10 -d -1 -p DSR -e 48 -c 2 -a 0 -i 9 -k RTR
+ -t 0.045714286 -s 17 -d -1 -p cbr -e 512 -c 2 -a 0 -i 15 -k AGT 
- -t 0.045714286 -s 17 -d -1 -p cbr -e 512 -c 2 -a 0 -i 15 -k AGT
h -t 0.045714286 -s 17 -d -1 -p cbr -e 512 -c 2 -a 0 -i 15 -k AGT
+ -t 0.046670211 -s 15 -d -1 -p DSR -e 68 -c 2 -a 0 -i 9 -k RTR 
- -t 0.046670211 -s 15 -d -1 -p DSR -e 68 -c 2 -a 0 -i 9 -k RTR
h -t 0.046670211 -s 15 -d -1 -p DSR -e 68 -c 2 -a 0 -i 9 -k RTR
+ -t 0.047625310 -s 18 -d 10 -p DSR -e 52 -c 2 -a 0 -i 17 -k RTR 
- -t 0.047625310 -s 18 -d 10 -p DSR -e 52 -c 2 -a 0 -i 17 -k RTR
h -t 0.047625310 -s 18 -d 10 -p DSR -e 52 -c 2 -a 0 -i 17 -k RTR
+ -t 0.048256781 -s 13 -d -1 -p DSR -e 68 -c 2 -a 0 -i 9 -k RTR 
- -t 0.048256781 -s 13 -d -1 -p DSR -e 68 -c 2 -a 0 -i 9 -k RTR
h -t 0.048256781 -s 13 -d -1 -p DSR -e 68 -c 2 -a 0 -i 9 -k RTR
+ -t 0.048712535 -s 12 -d -1 -p DSR -e 92 -c 2 -a 0 -i 9 -k RTR 
- -t 0.048712535 -s 12 -d -1 -p DSR -e 92 -c 2 -a 0 -i 9 -k RTR
h -t 0.048712535 -s 12 -d -1 -p DSR -e 92 -c 2 -a 0 -i 9 -k RTR
+ -t 0.048964329 -s 1 -d -1 -p DSR -e 68 -c 2 -a 0 -i 9 -k RTR 
- -t 0.048964329 -s 1 -d -1 -p DSR -e 68 -c 2 -a 0 -i 9 -k RTR
h -t 0.048964329 -s 1 -d -1 -p DSR -e 68 -c 2 -a 0 -i 9 -k RTR
+ -t 0.049012745 -s 0 -d -1 -p DSR -e 68 -c 2 -a 0 -i 9 -k RTR 
- -t 0.049012745 -s 0 -d -1 -p DSR -e 68 -c 2 -a 0 -i 9 -k RTR
h -t 0.049012745 -s 0 -d -1 -p DSR -e 68 -c 2 -a 0 -i 9 -k RTR
+ -t 0.049667807 -s 4 -d -1 -p DSR -e 68 -c 2 -a 0 -i 9 -k RTR 
- -t 0.049667807 -s 4 -d -1 -p DSR -e 68 -c 2 -a 0 -i 9 -k RTR
h -t 0.049667807 -s 4 -d -1 -p DSR -e 68 -c 2 -a 0 -i 9 -k RTR
+ -t 0.049750865 -s 2 -d -1 -p DSR -e 68 -c 2 -a 0 -i 9 -k RTR 
- -t 0.049750865 -s 2 -d -1 -p DSR -e 68 -c 2 -a 0 -i 9 -k RTR
h -t 0.049750865 -s 2 -d -1 -p DSR -e 68 -c 2 -a 0 -i 9 -k RTR
+ -t 0.050651409 -s 11 -d -1 -p DSR -e 68 -c 2 -a 0 -i 9 -k RTR 
- -t 0.050651409 -s 11 -d -1 -p DSR -e 68 -c 2 -a 0 -i 9 -k RTR
h -t 0.050651409 -s 11 -d -1 -p DSR -e 68 -c 2 -a 0 -i 9 -k RTR
+ -t 0.051842670 -s 5 -d -1 -p DSR -e 68 -c 2 -a 0 -i 9 -k RTR 
- -t 0.051842670 -s 5 -d -1 -p DSR -e 68 -c 2 -a 0 -i 9 -k RTR
h -t 0.051842670 -s 5 -d -1 -p DSR -e 68 -c 2 -a 0 -i 9 -k RTR
+ -t 0.051942933 -s 9 -d -1 -p DSR -e 68 -c 2 -a 0 -i 9 -k RTR 
- -t 0.051942933 -s 9 -d -1 -p DSR -e 68 -c 2 -a 0 -i 9 -k RTR
h -t 0.051942933 -s 9 -d -1 -p DSR -e 68 -c 2 -a 0 -i 9 -k RTR
+ -t 0.052344378 -s 6 -d -1 -p DSR -e 68 -c 2 -a 0 -i 9 -k RTR 
- -t 0.052344378 -s 6 -d -1 -p DSR -e 68 -c 2 -a 0 -i 9 -k RTR
h -t 0.052344378 -s 6 -d -1 -p DSR -e 68 -c 2 -a 0 -i 9 -k RTR
+ -t 0.053080610 -s 16 -d -1 -p DSR -e 68 -c 2 -a 0 -i 9 -k RTR 
- -t 0.053080610 -s 16 -d -1 -p DSR -e 68 -c 2 -a 0 -i 9 -k RTR
h -t 0.053080610 -s 16 -d -1 -p DSR -e 68 -c 2 -a 0 -i 9 -k RTR
+ -t 0.053179020 -s 14 -d -1 -p DSR -e 48 -c 2 -a 0 -i 9 -k RTR 
- -t 0.053179020 -s 14 -d -1 -p DSR -e 48 -c 2 -a 0 -i 9 -k RTR
h -t 0.053179020 -s 14 -d -1 -p DSR -e 48 -c 2 -a 0 -i 9 -k RTR
+ -t 0.053381125 -s 3 -d -1 -p DSR -e 68 -c 2 -a 0 -i 9 -k RTR 
- -t 0.053381125 -s 3 -d -1 -p DSR -e 68 -c 2 -a 0 -i 9 -k RTR
h -t 0.053381125 -s 3 -d -1 -p DSR -e 68 -c 2 -a 0 -i 9 -k RTR
+ -t 0.053728031 -s 20 -d -1 -p DSR -e 48 -c 2 -a 0 -i 9 -k RTR 
- -t 0.053728031 -s 20 -d -1 -p DSR -e 48 -c 2 -a 0 -i 9 -k RTR
h -t 0.053728031 -s 20 -d -1 -p DSR -e 48 -c 2 -a 0 -i 9 -k RTR
+ -t 0.054244549 -s 19 -d -1 -p DSR -e 68 -c 2 -a 0 -i 9 -k RTR 
- -t 0.054244549 -s 19 -d -1 -p DSR -e 68 -c 2 -a 0 -i 9 -k RTR
h -t 0.054244549 -s 19 -d -1 -p DSR -e 68 -c 2 -a 0 -i 9 -k RTR
+ -t 0.054794888 -s 18 -d 4 -p DSR -e 60 -c 2 -a 0 -i 20 -k RTR 
- -t 0.054794888 -s 18 -d 4 -p DSR -e 60 -c 2 -a 0 -i 20 -k RTR
h -t 0.054794888 -s 18 -d 4 -p DSR -e 60 -c 2 -a 0 -i 20 -k RTR
+ -t 0.054857143 -s 17 -d -1 -p cbr -e 512 -c 2 -a 0 -i 23 -k AGT 
- -t 0.054857143 -s 17 -d -1 -p cbr -e 512 -c 2 -a 0 -i 23 -k AGT
h -t 0.054857143 -s 17 -d -1 -p cbr -e 512 -c 2 -a 0 -i 23 -k AGT
+ -t 0.055161009 -s 7 -d -1 -p DSR -e 68 -c 2 -a 0 -i 9 -k RTR 
- -t 0.055161009 -s 7 -d -1 -p DSR -e 68 -c 2 -a 0 -i 9 -k RTR
h -t 0.055161009 -s 7 -d -1 -p DSR -e 68 -c 2 -a 0 -i 9 -k RTR
+ -t 0.055862933 -s 8 -d -1 -p DSR -e 68 -c 2 -a 0 -i 9 -k RTR 
- -t 0.055862933 -s 8 -d -1 -p DSR -e 68 -c 2 -a 0 -i 9 -k RTR
h -t 0.055862933 -s 8 -d -1 -p DSR -e 68 -c 2 -a 0 -i 9 -k RTR
+ -t 0.055976863 -s 18 -d 13 -p DSR -e 60 -c 2 -a 0 -i 19 -k RTR 
- -t 0.055976863 -s 18 -d 13 -p DSR -e 60 -c 2 -a 0 -i 19 -k RTR
h -t 0.055976863 -s 18 -d 13 -p DSR -e 60 -c 2 -a 0 -i 19 -k RTR
+ -t 0.057558938 -s 18 -d 15 -p DSR -e 60 -c 2 -a 0 -i 18 -k RTR 
- -t 0.057558938 -s 18 -d 15 -p DSR -e 60 -c 2 -a 0 -i 18 -k RTR
h -t 0.057558938 -s 18 -d 15 -p DSR -e 60 -c 2 -a 0 -i 18 -k RTR
+ -t 0.057931177 -s 18 -d 14 -p DSR -e 52 -c 2 -a 0 -i 22 -k RTR 
- -t 0.057931177 -s 18 -d 14 -p DSR -e 52 -c 2 -a 0 -i 22 -k RTR
h -t 0.057931177 -s 18 -d 14 -p DSR -e 52 -c 2 -a 0 -i 22 -k RTR
+ -t 0.059985721 -s 18 -d 2 -p DSR -e 60 -c 2 -a 0 -i 27 -k RTR 
- -t 0.059985721 -s 18 -d 2 -p DSR -e 60 -c 2 -a 0 -i 27 -k RTR
h -t 0.059985721 -s 18 -d 2 -p DSR -e 60 -c 2 -a 0 -i 27 -k RTR
+ -t 0.060732159 -s 18 -d 11 -p DSR -e 60 -c 2 -a 0 -i 21 -k RTR 
- -t 0.060732159 -s 18 -d 11 -p DSR -e 60 -c 2 -a 0 -i 21 -k RTR
h -t 0.060732159 -s 18 -d 11 -p DSR -e 60 -c 2 -a 0 -i 21 -k RTR
+ -t 0.062038922 -s 18 -d 20 -p DSR -e 52 -c 2 -a 0 -i 26 -k RTR 
- -t 0.062038922 -s 18 -d 20 -p DSR -e 52 -c 2 -a 0 -i 26 -k RTR
h -t 0.062038922 -s 18 -d 20 -p DSR -e 52 -c 2 -a 0 -i 26 -k RTR
+ -t 0.062046266 -s 18 -d 19 -p DSR -e 60 -c 2 -a 0 -i 25 -k RTR 
- -t 0.062046266 -s 18 -d 19 -p DSR -e 60 -c 2 -a 0 -i 25 -k RTR
h -t 0.062046266 -s 18 -d 19 -p DSR -e 60 -c 2 -a 0 -i 25 -k RTR
+ -t 0.062075878 -s 18 -d 16 -p DSR -e 60 -c 2 -a 0 -i 29 -k RTR 
- -t 0.062075878 -s 18 -d 16 -p DSR -e 60 -c 2 -a 0 -i 29 -k RTR
h -t 0.062075878 -s 18 -d 16 -p DSR -e 60 -c 2 -a 0 -i 29 -k RTR
+ -t 0.063406918 -s 18 -d 6 -p DSR -e 60 -c 2 -a 0 -i 28 -k RTR 
- -t 0.063406918 -s 18 -d 6 -p DSR -e 60 -c 2 -a 0 -i 28 -k RTR
h -t 0.063406918 -s 18 -d 6 -p DSR -e 60 -c 2 -a 0 -i 28 -k RTR
+ -t 0.064000000 -s 17 -d -1 -p cbr -e 512 -c 2 -a 0 -i 32 -k AGT 
- -t 0.064000000 -s 17 -d -1 -p cbr -e 512 -c 2 -a 0 -i 32 -k AGT
h -t 0.064000000 -s 17 -d -1 -p cbr -e 512 -c 2 -a 0 -i 32 -k AGT
+ -t 0.064416657 -s 18 -d 12 -p DSR -e 68 -c 2 -a 0 -i 30 -k RTR 
- -t 0.064416657 -s 18 -d 12 -p DSR -e 68 -c 2 -a 0 -i 30 -k RTR
h -t 0.064416657 -s 18 -d 12 -p DSR -e 68 -c 2 -a 0 -i 30 -k RTR
+ -t 0.067582772 -s 18 -d 9 -p DSR -e 60 -c 2 -a 0 -i 31 -k RTR 
- -t 0.067582772 -s 18 -d 9 -p DSR -e 60 -c 2 -a 0 -i 31 -k RTR
h -t 0.067582772 -s 18 -d 9 -p DSR -e 60 -c 2 -a 0 -i 31 -k RTR
+ -t 0.070386854 -s 18 -d 3 -p DSR -e 60 -c 2 -a 0 -i 36 -k RTR 
- -t 0.070386854 -s 18 -d 3 -p DSR -e 60 -c 2 -a 0 -i 36 -k RTR
h -t 0.070386854 -s 18 -d 3 -p DSR -e 60 -c 2 -a 0 -i 36 -k RTR
+ -t 0.071788745 -s 18 -d 7 -p DSR -e 60 -c 2 -a 0 -i 34 -k RTR 
- -t 0.071788745 -s 18 -d 7 -p DSR -e 60 -c 2 -a 0 -i 34 -k RTR
h -t 0.071788745 -s 18 -d 7 -p DSR -e 60 -c 2 -a 0 -i 34 -k RTR
+ -t 0.073142857 -s 17 -d -1 -p cbr -e 512 -c 2 -a 0 -i 37 -k AGT 
- -t 0.073142857 -s 17 -d -1 -p cbr -e 512 -c 2 -a 0 -i 37 -k AGT
h -t 0.073142857 -s 17 -d -1 -p cbr -e 512 -c 2 -a 0 -i 37 -k AGT
+ -t 0.074400153 -s 10 -d 17 -p DSR -e 52 -c 2 -a 0 -i 17 -k RTR 
- -t 0.074400153 -s 10 -d 17 -p DSR -e 52 -c 2 -a 0 -i 17 -k RTR
h -t 0.074400153 -s 10 -d 17 -p DSR -e 52 -c 2 -a 0 -i 17 -k RTR
+ -t 0.075460788 -s 18 -d 5 -p DSR -e 60 -c 2 -a 0 -i 35 -k RTR 
- -t 0.075460788 -s 18 -d 5 -p DSR -e 60 -c 2 -a 0 -i 35 -k RTR
h -t 0.075460788 -s 18 -d 5 -p DSR -e 60 -c 2 -a 0 -i 35 -k RTR
+ -t 0.079453327 -s 13 -d 10 -p DSR -e 60 -c 2 -a 0 -i 19 -k RTR 
- -t 0.079453327 -s 13 -d 10 -p DSR -e 60 -c 2 -a 0 -i 19 -k RTR
h -t 0.079453327 -s 13 -d 10 -p DSR -e 60 -c 2 -a 0 -i 19 -k RTR
+ -t 0.081538968 -s 4 -d 10 -p DSR -e 60 -c 2 -a 0 -i 20 -k RTR 
- -t 0.081538968 -s 4 -d 10 -p DSR -e 60 -c 2 -a 0 -i 20 -k RTR
h -t 0.081538968 -s 4 -d 10 -p DSR -e 60 -c 2 -a 0 -i 20 -k RTR
+ -t 0.082285714 -s 17 -d -1 -p cbr -e 512 -c 2 -a 0 -i 48 -k AGT 
- -t 0.082285714 -s 17 -d -1 -p cbr -e 512 -c 2 -a 0 -i 48 -k AGT
h -t 0.082285714 -s 17 -d -1 -p cbr -e 512 -c 2 -a 0 -i 48 -k AGT
+ -t 0.083644968 -s 10 -d 17 -p DSR -e 60 -c 2 -a 0 -i 20 -k RTR 
- -t 0.083644968 -s 10 -d 17 -p DSR -e 60 -c 2 -a 0 -i 20 -k RTR
h -t 0.083644968 -s 10 -d 17 -p DSR -e 60 -c 2 -a 0 -i 20 -k RTR
d -t 0.083644968 -s 10 -d 17 -p DSR -e 52 -c 2 -a 0 -i 17 -k IFQ
+ -t 0.087407708 -s 10 -d 17 -p DSR -e 60 -c 2 -a 0 -i 19 -k RTR 
- -t 0.087407708 -s 10 -d 17 -p DSR -e 60 -c 2 -a 0 -i 19 -k RTR
h -t 0.087407708 -s 10 -d 17 -p DSR -e 60 -c 2 -a 0 -i 19 -k RTR
d -t 0.087407708 -s 10 -d 17 -p DSR -e 60 -c 2 -a 0 -i 20 -k IFQ
+ -t 0.091428571 -s 17 -d -1 -p cbr -e 512 -c 2 -a 0 -i 50 -k AGT 
- -t 0.091428571 -s 17 -d -1 -p cbr -e 512 -c 2 -a 0 -i 50 -k AGT
h -t 0.091428571 -s 17 -d -1 -p cbr -e 512 -c 2 -a 0 -i 50 -k AGT
+ -t 0.093211412 -s 17 -d 10 -p cbr -e 556 -c 2 -a 0 -i 0 -k RTR 
- -t 0.093211412 -s 17 -d 10 -p cbr -e 556 -c 2 -a 0 -i 0 -k RTR
h -t 0.093211412 -s 17 -d 10 -p cbr -e 556 -c 2 -a 0 -i 0 -k RTR
+ -t 0.099192753 -s 15 -d 10 -p DSR -e 60 -c 2 -a 0 -i 18 -k RTR 
- -t 0.099192753 -s 15 -d 10 -p DSR -e 60 -c 2 -a 0 -i 18 -k RTR
h -t 0.099192753 -s 15 -d 10 -p DSR -e 60 -c 2 -a 0 -i 18 -k RTR
+ -t 0.100571429 -s 17 -d -1 -p cbr -e 512 -c 2 -a 0 -i 52 -k AGT 
- -t 0.100571429 -s 17 -d -1 -p cbr -e 512 -c 2 -a 0 -i 52 -k AGT
h -t 0.100571429 -s 17 -d -1 -p cbr -e 512 -c 2 -a 0 -i 52 -k AGT
+ -t 0.100571429 -s 17 -d 10 -p cbr -e 532 -c 2 -a 0 -i 52 -k RTR 
- -t 0.100571429 -s 17 -d 10 -p cbr -e 532 -c 2 -a 0 -i 52 -k RTR
h -t 0.100571429 -s 17 -d 10 -p cbr -e 532 -c 2 -a 0 -i 52 -k RTR
+ -t 0.101978071 -s 10 -d 17 -p DSR -e 60 -c 2 -a 0 -i 18 -k RTR 
- -t 0.101978071 -s 10 -d 17 -p DSR -e 60 -c 2 -a 0 -i 18 -k RTR
h -t 0.101978071 -s 10 -d 17 -p DSR -e 60 -c 2 -a 0 -i 18 -k RTR
+ -t 0.108733494 -s 14 -d 17 -p DSR -e 52 -c 2 -a 0 -i 22 -k RTR 
- -t 0.108733494 -s 14 -d 17 -p DSR -e 52 -c 2 -a 0 -i 22 -k RTR
h -t 0.108733494 -s 14 -d 17 -p DSR -e 52 -c 2 -a 0 -i 22 -k RTR
+ -t 0.109714286 -s 17 -d -1 -p cbr -e 512 -c 2 -a 0 -i 53 -k AGT 
- -t 0.109714286 -s 17 -d -1 -p cbr -e 512 -c 2 -a 0 -i 53 -k AGT
h -t 0.109714286 -s 17 -d -1 -p cbr -e 512 -c 2 -a 0 -i 53 -k AGT
+ -t 0.109714286 -s 17 -d 10 -p cbr -e 532 -c 2 -a 0 -i 53 -k RTR 
- -t 0.109714286 -s 17 -d 10 -p cbr -e 532 -c 2 -a 0 -i 53 -k RTR
h -t 0.109714286 -s 17 -d 10 -p cbr -e 532 -c 2 -a 0 -i 53 -k RTR
+ -t 0.117912784 -s 11 -d 10 -p DSR -e 60 -c 2 -a 0 -i 21 -k RTR 
- -t 0.117912784 -s 11 -d 10 -p DSR -e 60 -c 2 -a 0 -i 21 -k RTR
h -t 0.117912784 -s 11 -d 10 -p DSR -e 60 -c 2 -a 0 -i 21 -k RTR
+ -t 0.118857143 -s 17 -d -1 -p cbr -e 512 -c 2 -a 0 -i 54 -k AGT 
- -t 0.118857143 -s 17 -d -1 -p cbr -e 512 -c 2 -a 0 -i 54 -k AGT
h -t 0.118857143 -s 17 -d -1 -p cbr -e 512 -c 2 -a 0 -i 54 -k AGT
+ -t 0.118857143 -s 17 -d 10 -p cbr -e 532 -c 2 -a 0 -i 54 -k RTR 
- -t 0.118857143 -s 17 -d 10 -p cbr -e 532 -c 2 -a 0 -i 54 -k RTR
h -t 0.118857143 -s 17 -d 10 -p cbr -e 532 -c 2 -a 0 -i 54 -k RTR
+ -t 0.120897815 -s 10 -d 17 -p DSR -e 60 -c 2 -a 0 -i 21 -k RTR 
- -t 0.120897815 -s 10 -d 17 -p DSR -e 60 -c 2 -a 0 -i 21 -k RTR
h -t 0.120897815 -s 10 -d 17 -p DSR -e 60 -c 2 -a 0 -i 21 -k RTR
+ -t 0.122879720 -s 20 -d 17 -p DSR -e 52 -c 2 -a 0 -i 26 -k RTR 
- -t 0.122879720 -s 20 -d 17 -p DSR -e 52 -c 2 -a 0 -i 26 -k RTR
h -t 0.122879720 -s 20 -d 17 -p DSR -e 52 -c 2 -a 0 -i 26 -k RTR
+ -t 0.123211412 -s 17 -d 10 -p cbr -e 556 -c 2 -a 0 -i 2 -k RTR 
- -t 0.123211412 -s 17 -d 10 -p cbr -e 556 -c 2 -a 0 -i 2 -k RTR
h -t 0.123211412 -s 17 -d 10 -p cbr -e 556 -c 2 -a 0 -i 2 -k RTR
+ -t 0.128000000 -s 17 -d -1 -p cbr -e 512 -c 2 -a 0 -i 55 -k AGT 
- -t 0.128000000 -s 17 -d -1 -p cbr -e 512 -c 2 -a 0 -i 55 -k AGT
h -t 0.128000000 -s 17 -d -1 -p cbr -e 512 -c 2 -a 0 -i 55 -k AGT
+ -t 0.128000000 -s 17 -d 10 -p cbr -e 532 -c 2 -a 0 -i 55 -k RTR 
- -t 0.128000000 -s 17 -d 10 -p cbr -e 532 -c 2 -a 0 -i 55 -k RTR
h -t 0.128000000 -s 17 -d 10 -p cbr -e 532 -c 2 -a 0 -i 55 -k RTR
+ -t 0.130024421 -s 2 -d 10 -p DSR -e 60 -c 2 -a 0 -i 27 -k RTR 
- -t 0.130024421 -s 2 -d 10 -p DSR -e 60 -c 2 -a 0 -i 27 -k RTR
h -t 0.130024421 -s 2 -d 10 -p DSR -e 60 -c 2 -a 0 -i 27 -k RTR
+ -t 0.132010139 -s 19 -d 10 -p DSR -e 60 -c 2 -a 0 -i 25 -k RTR 
- -t 0.132010139 -s 19 -d 10 -p DSR -e 60 -c 2 -a 0 -i 25 -k RTR
h -t 0.132010139 -s 19 -d 10 -p DSR -e 60 -c 2 -a 0 -i 25 -k RTR
+ -t 0.134016260 -s 10 -d 17 -p DSR -e 60 -c 2 -a 0 -i 25 -k RTR 
- -t 0.134016260 -s 10 -d 17 -p DSR -e 60 -c 2 -a 0 -i 25 -k RTR
h -t 0.134016260 -s 10 -d 17 -p DSR -e 60 -c 2 -a 0 -i 25 -k RTR
+ -t 0.137142857 -s 17 -d -1 -p cbr -e 512 -c 2 -a 0 -i 56 -k AGT 
- -t 0.137142857 -s 17 -d -1 -p cbr -e 512 -c 2 -a 0 -i 56 -k AGT
h -t 0.137142857 -s 17 -d -1 -p cbr -e 512 -c 2 -a 0 -i 56 -k AGT
+ -t 0.137142857 -s 17 -d 10 -p cbr -e 532 -c 2 -a 0 -i 56 -k RTR 
- -t 0.137142857 -s 17 -d 10 -p cbr -e 532 -c 2 -a 0 -i 56 -k RTR
h -t 0.137142857 -s 17 -d 10 -p cbr -e 532 -c 2 -a 0 -i 56 -k RTR
+ -t 0.141145839 -s 10 -d 17 -p DSR -e 60 -c 2 -a 0 -i 27 -k RTR 
- -t 0.141145839 -s 10 -d 17 -p DSR -e 60 -c 2 -a 0 -i 27 -k RTR
h -t 0.141145839 -s 10 -d 17 -p DSR -e 60 -c 2 -a 0 -i 27 -k RTR
+ -t 0.146285714 -s 17 -d -1 -p cbr -e 512 -c 2 -a 0 -i 57 -k AGT 
- -t 0.146285714 -s 17 -d -1 -p cbr -e 512 -c 2 -a 0 -i 57 -k AGT
h -t 0.146285714 -s 17 -d -1 -p cbr -e 512 -c 2 -a 0 -i 57 -k AGT
+ -t 0.146285714 -s 17 -d 10 -p cbr -e 532 -c 2 -a 0 -i 57 -k RTR 
- -t 0.146285714 -s 17 -d 10 -p cbr -e 532 -c 2 -a 0 -i 57 -k RTR
h -t 0.146285714 -s 17 -d 10 -p cbr -e 532 -c 2 -a 0 -i 57 -k RTR
+ -t 0.146457239 -s 16 -d 10 -p DSR -e 60 -c 2 -a 0 -i 29 -k RTR 
- -t 0.146457239 -s 16 -d 10 -p DSR -e 60 -c 2 -a 0 -i 29 -k RTR
h -t 0.146457239 -s 16 -d 10 -p DSR -e 60 -c 2 -a 0 -i 29 -k RTR
+ -t 0.148562439 -s 10 -d 17 -p DSR -e 60 -c 2 -a 0 -i 29 -k RTR 
- -t 0.148562439 -s 10 -d 17 -p DSR -e 60 -c 2 -a 0 -i 29 -k RTR
h -t 0.148562439 -s 10 -d 17 -p DSR -e 60 -c 2 -a 0 -i 29 -k RTR
+ -t 0.153211412 -s 17 -d 10 -p cbr -e 556 -c 2 -a 0 -i 4 -k RTR 
- -t 0.153211412 -s 17 -d 10 -p cbr -e 556 -c 2 -a 0 -i 4 -k RTR
h -t 0.153211412 -s 17 -d 10 -p cbr -e 556 -c 2 -a 0 -i 4 -k RTR
+ -t 0.155428571 -s 17 -d -1 -p cbr -e 512 -c 2 -a 0 -i 58 -k AGT 
- -t 0.155428571 -s 17 -d -1 -p cbr -e 512 -c 2 -a 0 -i 58 -k AGT
h -t 0.155428571 -s 17 -d -1 -p cbr -e 512 -c 2 -a 0 -i 58 -k AGT
+ -t 0.155428571 -s 17 -d 10 -p cbr -e 532 -c 2 -a 0 -i 58 -k RTR 
- -t 0.155428571 -s 17 -d 10 -p cbr -e 532 -c 2 -a 0 -i 58 -k RTR
h -t 0.155428571 -s 17 -d 10 -p cbr -e 532 -c 2 -a 0 -i 58 -k RTR
+ -t 0.160779313 -s 10 -d 13 -p cbr -e 556 -c 2 -a 0 -i 0 -k RTR 
- -t 0.160779313 -s 10 -d 13 -p cbr -e 556 -c 2 -a 0 -i 0 -k RTR
h -t 0.160779313 -s 10 -d 13 -p cbr -e 556 -c 2 -a 0 -i 0 -k RTR
+ -t 0.164571429 -s 17 -d -1 -p cbr -e 512 -c 2 -a 0 -i 59 -k AGT 
- -t 0.164571429 -s 17 -d -1 -p cbr -e 512 -c 2 -a 0 -i 59 -k AGT
h -t 0.164571429 -s 17 -d -1 -p cbr -e 512 -c 2 -a 0 -i 59 -k AGT
+ -t 0.164571429 -s 17 -d 10 -p cbr -e 532 -c 2 -a 0 -i 59 -k RTR 
- -t 0.164571429 -s 17 -d 10 -p cbr -e 532 -c 2 -a 0 -i 59 -k RTR
h -t 0.164571429 -s 17 -d 10 -p cbr -e 532 -c 2 -a 0 -i 59 -k RTR
+ -t 0.173714286 -s 17 -d -1 -p cbr -e 512 -c 2 -a 0 -i 60 -k AGT 
- -t 0.173714286 -s 17 -d -1 -p cbr -e 512 -c 2 -a 0 -i 60 -k AGT
h -t 0.173714286 -s 17 -d -1 -p cbr -e 512 -c 2 -a 0 -i 60 -k AGT
+ -t 0.173714286 -s 17 -d 10 -p cbr -e 532 -c 2 -a 0 -i 60 -k RTR 
- -t 0.173714286 -s 17 -d 10 -p cbr -e 532 -c 2 -a 0 -i 60 -k RTR
h -t 0.173714286 -s 17 -d 10 -p cbr -e 532 -c 2 -a 0 -i 60 -k RTR
+ -t 0.176444468 -s 12 -d 15 -p DSR -e 68 -c 2 -a 0 -i 30 -k RTR 
- -t 0.176444468 -s 12 -d 15 -p DSR -e 68 -c 2 -a 0 -i 30 -k RTR
h -t 0.176444468 -s 12 -d 15 -p DSR -e 68 -c 2 -a 0 -i 30 -k RTR
+ -t 0.178810335 -s 7 -d 10 -p DSR -e 60 -c 2 -a 0 -i 34 -k RTR 
- -t 0.178810335 -s 7 -d 10 -p DSR -e 60 -c 2 -a 0 -i 34 -k RTR
h -t 0.178810335 -s 7 -d 10 -p DSR -e 60 -c 2 -a 0 -i 34 -k RTR
+ -t 0.181794970 -s 10 -d 17 -p DSR -e 60 -c 2 -a 0 -i 34 -k RTR 
- -t 0.181794970 -s 10 -d 17 -p DSR -e 60 -c 2 -a 0 -i 34 -k RTR
h -t 0.181794970 -s 10 -d 17 -p DSR -e 60 -c 2 -a 0 -i 34 -k RTR
+ -t 0.182857143 -s 17 -d -1 -p cbr -e 512 -c 2 -a 0 -i 61 -k AGT 
- -t 0.182857143 -s 17 -d -1 -p cbr -e 512 -c 2 -a 0 -i 61 -k AGT
h -t 0.182857143 -s 17 -d -1 -p cbr -e 512 -c 2 -a 0 -i 61 -k AGT
+ -t 0.182857143 -s 17 -d 10 -p cbr -e 532 -c 2 -a 0 -i 61 -k RTR 
- -t 0.182857143 -s 17 -d 10 -p cbr -e 532 -c 2 -a 0 -i 61 -k RTR
h -t 0.182857143 -s 17 -d 10 -p cbr -e 532 -c 2 -a 0 -i 61 -k RTR
+ -t 0.183211412 -s 17 -d 10 -p cbr -e 532 -c 2 -a 0 -i 6 -k RTR 
- -t 0.183211412 -s 17 -d 10 -p cbr -e 532 -c 2 -a 0 -i 6 -k RTR
h -t 0.183211412 -s 17 -d 10 -p cbr -e 532 -c 2 -a 0 -i 6 -k RTR
+ -t 0.187828972 -s 13 -d 18 -p cbr -e 556 -c 2 -a 0 -i 0 -k RTR 
- -t 0.187828972 -s 13 -d 18 -p cbr -e 556 -c 2 -a 0 -i 0 -k RTR
h -t 0.187828972 -s 13 -d 18 -p cbr -e 556 -c 2 -a 0 -i 0 -k RTR
+ -t 0.190034326 -s 9 -d 10 -p DSR -e 60 -c 2 -a 0 -i 31 -k RTR 
- -t 0.190034326 -s 9 -d 10 -p DSR -e 60 -c 2 -a 0 -i 31 -k RTR
h -t 0.190034326 -s 9 -d 10 -p DSR -e 60 -c 2 -a 0 -i 31 -k RTR
+ -t 0.192000000 -s 17 -d -1 -p cbr -e 512 -c 2 -a 0 -i 62 -k AGT 
- -t 0.192000000 -s 17 -d -1 -p cbr -e 512 -c 2 -a 0 -i 62 -k AGT
h -t 0.192000000 -s 17 -d -1 -p cbr -e 512 -c 2 -a 0 -i 62 -k AGT
+ -t 0.192000000 -s 17 -d 10 -p cbr -e 532 -c 2 -a 0 -i 62 -k RTR 
- -t 0.192000000 -s 17 -d 10 -p cbr -e 532 -c 2 -a 0 -i 62 -k RTR
h -t 0.192000000 -s 17 -d 10 -p cbr -e 532 -c 2 -a 0 -i 62 -k RTR
+ -t 0.192120023 -s 10 -d 17 -p DSR -e 60 -c 2 -a 0 -i 31 -k RTR 
- -t 0.192120023 -s 10 -d 17 -p DSR -e 60 -c 2 -a 0 -i 31 -k RTR
h -t 0.192120023 -s 10 -d 17 -p DSR -e 60 -c 2 -a 0 -i 31 -k RTR
n -t 0.200000 -s 17 -x 2.000000 -y 2.000000 -U 19.508897 -V 15.633392 -T 15.223823
+ -t 0.201142857 -s 17 -d -1 -p cbr -e 512 -c 2 -a 0 -i 63 -k AGT 
- -t 0.201142857 -s 17 -d -1 -p cbr -e 512 -c 2 -a 0 -i 63 -k AGT
h -t 0.201142857 -s 17 -d -1 -p cbr -e 512 -c 2 -a 0 -i 63 -k AGT
+ -t 0.201142857 -s 17 -d 10 -p cbr -e 532 -c 2 -a 0 -i 63 -k RTR 
- -t 0.201142857 -s 17 -d 10 -p cbr -e 532 -c 2 -a 0 -i 63 -k RTR
h -t 0.201142857 -s 17 -d 10 -p cbr -e 532 -c 2 -a 0 -i 63 -k RTR
r -t 0.202951571 -s 18 -d 18 -p cbr -e 512 -c 2 -a 0 -i 0 -k AGT
+ -t 0.206902736 -s 15 -d 10 -p DSR -e 68 -c 2 -a 0 -i 30 -k RTR 
- -t 0.206902736 -s 15 -d 10 -p DSR -e 68 -c 2 -a 0 -i 30 -k RTR
h -t 0.206902736 -s 15 -d 10 -p DSR -e 68 -c 2 -a 0 -i 30 -k RTR
+ -t 0.208992732 -s 10 -d 17 -p DSR -e 68 -c 2 -a 0 -i 30 -k RTR 
- -t 0.208992732 -s 10 -d 17 -p DSR -e 68 -c 2 -a 0 -i 30 -k RTR
h -t 0.208992732 -s 10 -d 17 -p DSR -e 68 -c 2 -a 0 -i 30 -k RTR
+ -t 0.210285714 -s 17 -d -1 -p cbr -e 512 -c 2 -a 0 -i 64 -k AGT 
- -t 0.210285714 -s 17 -d -1 -p cbr -e 512 -c 2 -a 0 -i 64 -k AGT
h -t 0.210285714 -s 17 -d -1 -p cbr -e 512 -c 2 -a 0 -i 64 -k AGT
+ -t 0.210285714 -s 17 -d 10 -p cbr -e 532 -c 2 -a 0 -i 64 -k RTR 
- -t 0.210285714 -s 17 -d 10 -p cbr -e 532 -c 2 -a 0 -i 64 -k RTR
h -t 0.210285714 -s 17 -d 10 -p cbr -e 532 -c 2 -a 0 -i 64 -k RTR
+ -t 0.211077868 -s 3 -d 10 -p DSR -e 60 -c 2 -a 0 -i 36 -k RTR 
- -t 0.211077868 -s 3 -d 10 -p DSR -e 60 -c 2 -a 0 -i 36 -k RTR
h -t 0.211077868 -s 3 -d 10 -p DSR -e 60 -c 2 -a 0 -i 36 -k RTR
+ -t 0.213211412 -s 17 -d 10 -p cbr -e 532 -c 2 -a 0 -i 8 -k RTR 
- -t 0.213211412 -s 17 -d 10 -p cbr -e 532 -c 2 -a 0 -i 8 -k RTR
h -t 0.213211412 -s 17 -d 10 -p cbr -e 532 -c 2 -a 0 -i 8 -k RTR
+ -t 0.215934479 -s 5 -d 10 -p DSR -e 60 -c 2 -a 0 -i 35 -k RTR 
- -t 0.215934479 -s 5 -d 10 -p DSR -e 60 -c 2 -a 0 -i 35 -k RTR
h -t 0.215934479 -s 5 -d 10 -p DSR -e 60 -c 2 -a 0 -i 35 -k RTR
+ -t 0.219428571 -s 17 -d -1 -p cbr -e 512 -c 2 -a 0 -i 65 -k AGT 
- -t 0.219428571 -s 17 -d -1 -p cbr -e 512 -c 2 -a 0 -i 65 -k AGT
h -t 0.219428571 -s 17 -d -1 -p cbr -e 512 -c 2 -a 0 -i 65 -k AGT
+ -t 0.219428571 -s 17 -d 10 -p cbr -e 532 -c 2 -a 0 -i 65 -k RTR 
- -t 0.219428571 -s 17 -d 10 -p cbr -e 532 -c 2 -a 0 -i 65 -k RTR
h -t 0.219428571 -s 17 -d 10 -p cbr -e 532 -c 2 -a 0 -i 65 -k RTR
+ -t 0.224047388 -s 10 -d 13 -p cbr -e 532 -c 2 -a 0 -i 52 -k RTR 
- -t 0.224047388 -s 10 -d 13 -p cbr -e 532 -c 2 -a 0 -i 52 -k RTR
h -t 0.224047388 -s 10 -d 13 -p cbr -e 532 -c 2 -a 0 -i 52 -k RTR
+ -t 0.226103073 -s 10 -d 17 -p DSR -e 60 -c 2 -a 0 -i 36 -k RTR 
- -t 0.226103073 -s 10 -d 17 -p DSR -e 60 -c 2 -a 0 -i 36 -k RTR
h -t 0.226103073 -s 10 -d 17 -p DSR -e 60 -c 2 -a 0 -i 36 -k RTR
+ -t 0.228571429 -s 17 -d -1 -p cbr -e 512 -c 2 -a 0 -i 66 -k AGT 
- -t 0.228571429 -s 17 -d -1 -p cbr -e 512 -c 2 -a 0 -i 66 -k AGT
h -t 0.228571429 -s 17 -d -1 -p cbr -e 512 -c 2 -a 0 -i 66 -k AGT
+ -t 0.228571429 -s 17 -d 10 -p cbr -e 532 -c 2 -a 0 -i 66 -k RTR 
- -t 0.228571429 -s 17 -d 10 -p cbr -e 532 -c 2 -a 0 -i 66 -k RTR
h -t 0.228571429 -s 17 -d 10 -p cbr -e 532 -c 2 -a 0 -i 66 -k RTR
+ -t 0.232016019 -s 10 -d 13 -p cbr -e 532 -c 2 -a 0 -i 53 -k RTR 
- -t 0.232016019 -s 10 -d 13 -p cbr -e 532 -c 2 -a 0 -i 53 -k RTR
h -t 0.232016019 -s 10 -d 13 -p cbr -e 532 -c 2 -a 0 -i 53 -k RTR
+ -t 0.237714286 -s 17 -d -1 -p cbr -e 512 -c 2 -a 0 -i 67 -k AGT 
- -t 0.237714286 -s 17 -d -1 -p cbr -e 512 -c 2 -a 0 -i 67 -k AGT
h -t 0.237714286 -s 17 -d -1 -p cbr -e 512 -c 2 -a 0 -i 67 -k AGT
+ -t 0.237714286 -s 17 -d 10 -p cbr -e 532 -c 2 -a 0 -i 67 -k RTR 
- -t 0.237714286 -s 17 -d 10 -p cbr -e 532 -c 2 -a 0 -i 67 -k RTR
h -t 0.237714286 -s 17 -d 10 -p cbr -e 532 -c 2 -a 0 -i 67 -k RTR
+ -t 0.237878022 -s 13 -d 18 -p cbr -e 532 -c 2 -a 0 -i 52 -k RTR 
- -t 0.237878022 -s 13 -d 18 -p cbr -e 532 -c 2 -a 0 -i 52 -k RTR
h -t 0.237878022 -s 13 -d 18 -p cbr -e 532 -c 2 -a 0 -i 52 -k RTR
+ -t 0.243211412 -s 17 -d 10 -p cbr -e 532 -c 2 -a 0 -i 15 -k RTR 
- -t 0.243211412 -s 17 -d 10 -p cbr -e 532 -c 2 -a 0 -i 15 -k RTR
h -t 0.243211412 -s 17 -d 10 -p cbr -e 532 -c 2 -a 0 -i 15 -k RTR
+ -t 0.246127108 -s 10 -d 13 -p cbr -e 532 -c 2 -a 0 -i 54 -k RTR 
- -t 0.246127108 -s 10 -d 13 -p cbr -e 532 -c 2 -a 0 -i 54 -k RTR
h -t 0.246127108 -s 10 -d 13 -p cbr -e 532 -c 2 -a 0 -i 54 -k RTR
+ -t 0.246857143 -s 17 -d -1 -p cbr -e 512 -c 2 -a 0 -i 68 -k AGT 
- -t 0.246857143 -s 17 -d -1 -p cbr -e 512 -c 2 -a 0 -i 68 -k AGT
h -t 0.246857143 -s 17 -d -1 -p cbr -e 512 -c 2 -a 0 -i 68 -k AGT
+ -t 0.246857143 -s 17 -d 10 -p cbr -e 532 -c 2 -a 0 -i 68 -k RTR 
- -t 0.246857143 -s 17 -d 10 -p cbr -e 532 -c 2 -a 0 -i 68 -k RTR
h -t 0.246857143 -s 17 -d 10 -p cbr -e 532 -c 2 -a 0 -i 68 -k RTR
+ -t 0.250749757 -s 10 -d 17 -p DSR -e 60 -c 2 -a 0 -i 35 -k RTR 
- -t 0.250749757 -s 10 -d 17 -p DSR -e 60 -c 2 -a 0 -i 35 -k RTR
h -t 0.250749757 -s 10 -d 17 -p DSR -e 60 -c 2 -a 0 -i 35 -k RTR
+ -t 0.256000000 -s 17 -d -1 -p cbr -e 512 -c 2 -a 0 -i 69 -k AGT 
- -t 0.256000000 -s 17 -d -1 -p cbr -e 512 -c 2 -a 0 -i 69 -k AGT
h -t 0.256000000 -s 17 -d -1 -p cbr -e 512 -c 2 -a 0 -i 69 -k AGT
+ -t 0.256000000 -s 17 -d 14 -p cbr -e 552 -c 2 -a 0 -i 69 -k RTR 
- -t 0.256000000 -s 17 -d 14 -p cbr -e 552 -c 2 -a 0 -i 69 -k RTR
h -t 0.256000000 -s 17 -d 14 -p cbr -e 552 -c 2 -a 0 -i 69 -k RTR
+ -t 0.258614488 -s 13 -d 18 -p cbr -e 532 -c 2 -a 0 -i 53 -k RTR 
- -t 0.258614488 -s 13 -d 18 -p cbr -e 532 -c 2 -a 0 -i 53 -k RTR
h -t 0.258614488 -s 13 -d 18 -p cbr -e 532 -c 2 -a 0 -i 53 -k RTR
r -t 0.264695788 -s 18 -d 18 -p cbr -e 512 -c 2 -a 0 -i 52 -k AGT
+ -t 0.265142857 -s 17 -d -1 -p cbr -e 512 -c 2 -a 0 -i 70 -k AGT 
- -t 0.265142857 -s 17 -d -1 -p cbr -e 512 -c 2 -a 0 -i 70 -k AGT
h -t 0.265142857 -s 17 -d -1 -p cbr -e 512 -c 2 -a 0 -i 70 -k AGT
+ -t 0.265142857 -s 17 -d 14 -p cbr -e 552 -c 2 -a 0 -i 70 -k RTR 
- -t 0.265142857 -s 17 -d 14 -p cbr -e 552 -c 2 -a 0 -i 70 -k RTR
h -t 0.265142857 -s 17 -d 14 -p cbr -e 552 -c 2 -a 0 -i 70 -k RTR
+ -t 0.272876499 -s 10 -d 13 -p cbr -e 556 -c 2 -a 0 -i 2 -k RTR 
- -t 0.272876499 -s 10 -d 13 -p cbr -e 556 -c 2 -a 0 -i 2 -k RTR
h -t 0.272876499 -s 10 -d 13 -p cbr -e 556 -c 2 -a 0 -i 2 -k RTR
+ -t 0.273211412 -s 17 -d 10 -p cbr -e 532 -c 2 -a 0 -i 23 -k RTR 
- -t 0.273211412 -s 17 -d 10 -p cbr -e 532 -c 2 -a 0 -i 23 -k RTR
h -t 0.273211412 -s 17 -d 10 -p cbr -e 532 -c 2 -a 0 -i 23 -k RTR
+ -t 0.274285714 -s 17 -d -1 -p cbr -e 512 -c 2 -a 0 -i 71 -k AGT 
- -t 0.274285714 -s 17 -d -1 -p cbr -e 512 -c 2 -a 0 -i 71 -k AGT
h -t 0.274285714 -s 17 -d -1 -p cbr -e 512 -c 2 -a 0 -i 71 -k AGT
+ -t 0.274285714 -s 17 -d 14 -p cbr -e 552 -c 2 -a 0 -i 71 -k RTR 
- -t 0.274285714 -s 17 -d 14 -p cbr -e 552 -c 2 -a 0 -i 71 -k RTR
h -t 0.274285714 -s 17 -d 14 -p cbr -e 552 -c 2 -a 0 -i 71 -k RTR
r -t 0.278968131 -s 18 -d 18 -p cbr -e 512 -c 2 -a 0 -i 53 -k AGT
+ -t 0.283428571 -s 17 -d -1 -p cbr -e 512 -c 2 -a 0 -i 72 -k AGT 
- -t 0.283428571 -s 17 -d -1 -p cbr -e 512 -c 2 -a 0 -i 72 -k AGT
h -t 0.283428571 -s 17 -d -1 -p cbr -e 512 -c 2 -a 0 -i 72 -k AGT
+ -t 0.283428571 -s 17 -d 14 -p cbr -e 532 -c 2 -a 0 -i 72 -k RTR 
- -t 0.283428571 -s 17 -d 14 -p cbr -e 532 -c 2 -a 0 -i 72 -k RTR
h -t 0.283428571 -s 17 -d 14 -p cbr -e 532 -c 2 -a 0 -i 72 -k RTR
+ -t 0.284890438 -s 13 -d 18 -p cbr -e 532 -c 2 -a 0 -i 54 -k RTR 
- -t 0.284890438 -s 13 -d 18 -p cbr -e 532 -c 2 -a 0 -i 54 -k RTR
h -t 0.284890438 -s 13 -d 18 -p cbr -e 532 -c 2 -a 0 -i 54 -k RTR
+ -t 0.291119745 -s 18 -d 10 -p DSR -e 52 -c 2 -a 0 -i 73 -k RTR 
- -t 0.291119745 -s 18 -d 10 -p DSR -e 52 -c 2 -a 0 -i 73 -k RTR
h -t 0.291119745 -s 18 -d 10 -p DSR -e 52 -c 2 -a 0 -i 73 -k RTR
+ -t 0.291145108 -s 13 -d 18 -p cbr -e 556 -c 2 -a 0 -i 2 -k RTR 
- -t 0.291145108 -s 13 -d 18 -p cbr -e 556 -c 2 -a 0 -i 2 -k RTR
h -t 0.291145108 -s 13 -d 18 -p cbr -e 556 -c 2 -a 0 -i 2 -k RTR
+ -t 0.292571429 -s 17 -d -1 -p cbr -e 512 -c 2 -a 0 -i 74 -k AGT 
- -t 0.292571429 -s 17 -d -1 -p cbr -e 512 -c 2 -a 0 -i 74 -k AGT
h -t 0.292571429 -s 17 -d -1 -p cbr -e 512 -c 2 -a 0 -i 74 -k AGT
+ -t 0.292571429 -s 17 -d 14 -p cbr -e 532 -c 2 -a 0 -i 74 -k RTR 
- -t 0.292571429 -s 17 -d 14 -p cbr -e 532 -c 2 -a 0 -i 74 -k RTR
h -t 0.292571429 -s 17 -d 14 -p cbr -e 532 -c 2 -a 0 -i 74 -k RTR
+ -t 0.293086455 -s 10 -d 17 -p DSR -e 52 -c 2 -a 0 -i 73 -k RTR 
- -t 0.293086455 -s 10 -d 17 -p DSR -e 52 -c 2 -a 0 -i 73 -k RTR
h -t 0.293086455 -s 10 -d 17 -p DSR -e 52 -c 2 -a 0 -i 73 -k RTR
+ -t 0.301714286 -s 17 -d -1 -p cbr -e 512 -c 2 -a 0 -i 75 -k AGT 
- -t 0.301714286 -s 17 -d -1 -p cbr -e 512 -c 2 -a 0 -i 75 -k AGT
h -t 0.301714286 -s 17 -d -1 -p cbr -e 512 -c 2 -a 0 -i 75 -k AGT
+ -t 0.301714286 -s 17 -d 14 -p cbr -e 532 -c 2 -a 0 -i 75 -k RTR 
- -t 0.301714286 -s 17 -d 14 -p cbr -e 532 -c 2 -a 0 -i 75 -k RTR
h -t 0.301714286 -s 17 -d 14 -p cbr -e 532 -c 2 -a 0 -i 75 -k RTR