n -t * -s 0  -x 50 -y 50 -Z 0 -z 10  -v circle -c green
n -t * -s 1  -x 100 -y 50 -Z 0 -z 10  -v circle -c green
n -t * -s 2  -x 150 -y 50 -Z 0 -z 10  -v circle -c green
n -t * -s 3  -x 200 -y 50 -Z 0 -z 10  -v circle -c green
n -t * -s 4  -x 250 -y 50 -Z 0 -z 10  -v circle -c green
n -t * -s 5  -x 300 -y 50 -Z 0 -z 10  -v circle -c green
n -t * -s 6  -x 350 -y 50 -Z 0 -z 10  -v circle -c green
n -t * -s 7  -x 400 -y 50 -Z 0 -z 10  -v circle -c green
n -t * -s 8  -x 450 -y 50 -Z 0 -z 10  -v circle -c green
n -t * -s 9  -x 500 -y 50 -Z 0 -z 10  -v circle -c green
n -t * -s 10  -x 50 -y 100 -Z 0 -z 10  -v circle -c green
n -t * -s 11  -x 100 -y 100 -Z 0 -z 10  -v circle -c green
n -t * -s 12  -x 150 -y 100 -Z 0 -z 10  -v circle -c green
n -t * -s 13  -x 200 -y 100 -Z 0 -z 10  -v circle -c green
n -t * -s 14  -x 250 -y 100 -Z 0 -z 10  -v circle -c green
n -t * -s 15  -x 300 -y 100 -Z 0 -z 10  -v circle -c green
n -t * -s 16  -x 350 -y 100 -Z 0 -z 10  -v circle -c green
n -t * -s 17  -x 400 -y 100 -Z 0 -z 10  -v circle -c green
n -t * -s 18  -x 450 -y 100 -Z 0 -z 10  -v circle -c green
n -t * -s 19  -x 500 -y 100 -Z 0 -z 10  -v circle -c green
n -t * -s 20  -x 2 -y 2 -Z 0 -z 10  -v circle -c green
V -t * -v 1.0a5 -a 0
W -t * -x 500 -y 250
A -t * -n 1 -p 0 -o 0x7fffffff -c 30 -a 1
A -t * -h 1 -m 1073741823 -s 0
+ -t 0.000000000 -s 20 -d -1 -p cbr -e 512 -c 2 -a 0 -i 0 -k AGT 
- -t 0.000000000 -s 20 -d -1 -p cbr -e 512 -c 2 -a 0 -i 0 -k AGT
h -t 0.000000000 -s 20 -d -1 -p cbr -e 512 -c 2 -a 0 -i 0 -k AGT
+ -t 0.004166565 -s 0 -d -1 -p message -e 32 -c 2 -a 0 -i 1 -k RTR 
- -t 0.004166565 -s 0 -d -1 -p message -e 32 -c 2 -a 0 -i 1 -k RTR
h -t 0.004166565 -s 0 -d -1 -p message -e 32 -c 2 -a 0 -i 1 -k RTR
r -t 0.005006731 -s 10 -d -1 -p message -e 32 -c 2 -a 0 -i 1 -k RTR
r -t 0.005006731 -s 1 -d -1 -p message -e 32 -c 2 -a 0 -i 1 -k RTR
r -t 0.005006791 -s 20 -d -1 -p message -e 32 -c 2 -a 0 -i 1 -k RTR
r -t 0.005006800 -s 11 -d -1 -p message -e 32 -c 2 -a 0 -i 1 -k RTR
r -t 0.005006898 -s 2 -d -1 -p message -e 32 -c 2 -a 0 -i 1 -k RTR
r -t 0.005006937 -s 12 -d -1 -p message -e 32 -c 2 -a 0 -i 1 -k RTR
r -t 0.005007065 -s 3 -d -1 -p message -e 32 -c 2 -a 0 -i 1 -k RTR
r -t 0.005007092 -s 13 -d -1 -p message -e 32 -c 2 -a 0 -i 1 -k RTR
r -t 0.005007231 -s 4 -d -1 -p message -e 32 -c 2 -a 0 -i 1 -k RTR
r -t 0.005007252 -s 14 -d -1 -p message -e 32 -c 2 -a 0 -i 1 -k RTR
r -t 0.005007398 -s 5 -d -1 -p message -e 32 -c 2 -a 0 -i 1 -k RTR
+ -t 0.009142857 -s 20 -d -1 -p cbr -e 512 -c 2 -a 0 -i 2 -k AGT 
- -t 0.009142857 -s 20 -d -1 -p cbr -e 512 -c 2 -a 0 -i 2 -k AGT
h -t 0.009142857 -s 20 -d -1 -p cbr -e 512 -c 2 -a 0 -i 2 -k AGT
+ -t 0.018285714 -s 20 -d -1 -p cbr -e 512 -c 2 -a 0 -i 3 -k AGT 
- -t 0.018285714 -s 20 -d -1 -p cbr -e 512 -c 2 -a 0 -i 3 -k AGT
h -t 0.018285714 -s 20 -d -1 -p cbr -e 512 -c 2 -a 0 -i 3 -k AGT
+ -t 0.027428571 -s 20 -d -1 -p cbr -e 512 -c 2 -a 0 -i 4 -k AGT 
- -t 0.027428571 -s 20 -d -1 -p cbr -e 512 -c 2 -a 0 -i 4 -k AGT
h -t 0.027428571 -s 20 -d -1 -p cbr -e 512 -c 2 -a 0 -i 4 -k AGT
+ -t 0.033070481 -s 2 -d -1 -p message -e 32 -c 2 -a 0 -i 5 -k RTR 
- -t 0.033070481 -s 2 -d -1 -p message -e 32 -c 2 -a 0 -i 5 -k RTR
h -t 0.033070481 -s 2 -d -1 -p message -e 32 -c 2 -a 0 -i 5 -k RTR
r -t 0.034470647 -s 1 -d -1 -p message -e 32 -c 2 -a 0 -i 5 -k RTR
r -t 0.034470647 -s 12 -d -1 -p message -e 32 -c 2 -a 0 -i 5 -k RTR
r -t 0.034470647 -s 3 -d -1 -p message -e 32 -c 2 -a 0 -i 5 -k RTR
r -t 0.034470716 -s 11 -d -1 -p message -e 32 -c 2 -a 0 -i 5 -k RTR
r -t 0.034470716 -s 13 -d -1 -p message -e 32 -c 2 -a 0 -i 5 -k RTR
r -t 0.034470814 -s 0 -d -1 -p message -e 32 -c 2 -a 0 -i 5 -k RTR
r -t 0.034470814 -s 4 -d -1 -p message -e 32 -c 2 -a 0 -i 5 -k RTR
r -t 0.034470853 -s 10 -d -1 -p message -e 32 -c 2 -a 0 -i 5 -k RTR
r -t 0.034470853 -s 14 -d -1 -p message -e 32 -c 2 -a 0 -i 5 -k RTR
r -t 0.034470981 -s 5 -d -1 -p message -e 32 -c 2 -a 0 -i 5 -k RTR
r -t 0.034470999 -s 20 -d -1 -p message -e 32 -c 2 -a 0 -i 5 -k RTR
r -t 0.034471008 -s 15 -d -1 -p message -e 32 -c 2 -a 0 -i 5 -k RTR
r -t 0.034471147 -s 6 -d -1 -p message -e 32 -c 2 -a 0 -i 5 -k RTR
r -t 0.034471168 -s 16 -d -1 -p message -e 32 -c 2 -a 0 -i 5 -k RTR
r -t 0.034471314 -s 7 -d -1 -p message -e 32 -c 2 -a 0 -i 5 -k RTR
+ -t 0.036571429 -s 20 -d -1 -p cbr -e 512 -c 2 -a 0 -i 6 -k AGT 
- -t 0.036571429 -s 20 -d -1 -p cbr -e 512 -c 2 -a 0 -i 6 -k AGT
h -t 0.036571429 -s 20 -d -1 -p cbr -e 512 -c 2 -a 0 -i 6 -k AGT
+ -t 0.045714286 -s 20 -d -1 -p cbr -e 512 -c 2 -a 0 -i 7 -k AGT 
- -t 0.045714286 -s 20 -d -1 -p cbr -e 512 -c 2 -a 0 -i 7 -k AGT
h -t 0.045714286 -s 20 -d -1 -p cbr -e 512 -c 2 -a 0 -i 7 -k AGT
d -t 0.045714286 -s 20 -d -1 -p cbr -e 532 -c 2 -a 0 -i 0 -k RTR
+ -t 0.054857143 -s 20 -d -1 -p cbr -e 512 -c 2 -a 0 -i 8 -k AGT 
- -t 0.054857143 -s 20 -d -1 -p cbr -e 512 -c 2 -a 0 -i 8 -k AGT
h -t 0.054857143 -s 20 -d -1 -p cbr -e 512 -c 2 -a 0 -i 8 -k AGT
d -t 0.054857143 -s 20 -d -1 -p cbr -e 532 -c 2 -a 0 -i 2 -k RTR
+ -t 0.064000000 -s 20 -d -1 -p cbr -e 512 -c 2 -a 0 -i 9 -k AGT 
- -t 0.064000000 -s 20 -d -1 -p cbr -e 512 -c 2 -a 0 -i 9 -k AGT
h -t 0.064000000 -s 20 -d -1 -p cbr -e 512 -c 2 -a 0 -i 9 -k AGT
d -t 0.064000000 -s 20 -d -1 -p cbr -e 532 -c 2 -a 0 -i 3 -k RTR
+ -t 0.073142857 -s 20 -d -1 -p cbr -e 512 -c 2 -a 0 -i 10 -k AGT 
- -t 0.073142857 -s 20 -d -1 -p cbr -e 512 -c 2 -a 0 -i 10 -k AGT
h -t 0.073142857 -s 20 -d -1 -p cbr -e 512 -c 2 -a 0 -i 10 -k AGT
d -t 0.073142857 -s 20 -d -1 -p cbr -e 532 -c 2 -a 0 -i 4 -k RTR
+ -t 0.082285714 -s 20 -d -1 -p cbr -e 512 -c 2 -a 0 -i 11 -k AGT 
- -t 0.082285714 -s 20 -d -1 -p cbr -e 512 -c 2 -a 0 -i 11 -k AGT
h -t 0.082285714 -s 20 -d -1 -p cbr -e 512 -c 2 -a 0 -i 11 -k AGT
d -t 0.082285714 -s 20 -d -1 -p cbr -e 532 -c 2 -a 0 -i 6 -k RTR
+ -t 0.087760710 -s 13 -d -1 -p message -e 32 -c 2 -a 0 -i 12 -k RTR 
- -t 0.087760710 -s 13 -d -1 -p message -e 32 -c 2 -a 0 -i 12 -k RTR
h -t 0.087760710 -s 13 -d -1 -p message -e 32 -c 2 -a 0 -i 12 -k RTR
r -t 0.088620877 -s 3 -d -1 -p message -e 32 -c 2 -a 0 -i 12 -k RTR
r -t 0.088620877 -s 12 -d -1 -p message -e 32 -c 2 -a 0 -i 12 -k RTR
r -t 0.088620877 -s 14 -d -1 -p message -e 32 -c 2 -a 0 -i 12 -k RTR
r -t 0.088620946 -s 2 -d -1 -p message -e 32 -c 2 -a 0 -i 12 -k RTR
r -t 0.088620946 -s 4 -d -1 -p message -e 32 -c 2 -a 0 -i 12 -k RTR
r -t 0.088621043 -s 11 -d -1 -p message -e 32 -c 2 -a 0 -i 12 -k RTR
r -t 0.088621043 -s 15 -d -1 -p message -e 32 -c 2 -a 0 -i 12 -k RTR
r -t 0.088621083 -s 1 -d -1 -p message -e 32 -c 2 -a 0 -i 12 -k RTR
r -t 0.088621083 -s 5 -d -1 -p message -e 32 -c 2 -a 0 -i 12 -k RTR
r -t 0.088621210 -s 10 -d -1 -p message -e 32 -c 2 -a 0 -i 12 -k RTR
r -t 0.088621210 -s 16 -d -1 -p message -e 32 -c 2 -a 0 -i 12 -k RTR
r -t 0.088621237 -s 0 -d -1 -p message -e 32 -c 2 -a 0 -i 12 -k RTR
r -t 0.088621237 -s 6 -d -1 -p message -e 32 -c 2 -a 0 -i 12 -k RTR
r -t 0.088621377 -s 17 -d -1 -p message -e 32 -c 2 -a 0 -i 12 -k RTR
r -t 0.088621397 -s 7 -d -1 -p message -e 32 -c 2 -a 0 -i 12 -k RTR
r -t 0.088621446 -s 20 -d -1 -p message -e 32 -c 2 -a 0 -i 12 -k RTR
r -t 0.088621543 -s 18 -d -1 -p message -e 32 -c 2 -a 0 -i 12 -k RTR
+ -t 0.091428571 -s 20 -d -1 -p cbr -e 512 -c 2 -a 0 -i 13 -k AGT 
- -t 0.091428571 -s 20 -d -1 -p cbr -e 512 -c 2 -a 0 -i 13 -k AGT
h -t 0.091428571 -s 20 -d -1 -p cbr -e 512 -c 2 -a 0 -i 13 -k AGT
d -t 0.091428571 -s 20 -d -1 -p cbr -e 532 -c 2 -a 0 -i 7 -k RTR
+ -t 0.100571429 -s 20 -d -1 -p cbr -e 512 -c 2 -a 0 -i 14 -k AGT 
- -t 0.100571429 -s 20 -d -1 -p cbr -e 512 -c 2 -a 0 -i 14 -k AGT
h -t 0.100571429 -s 20 -d -1 -p cbr -e 512 -c 2 -a 0 -i 14 -k AGT
d -t 0.100571429 -s 20 -d -1 -p cbr -e 532 -c 2 -a 0 -i 8 -k RTR
+ -t 0.109714286 -s 20 -d -1 -p cbr -e 512 -c 2 -a 0 -i 15 -k AGT 
- -t 0.109714286 -s 20 -d -1 -p cbr -e 512 -c 2 -a 0 -i 15 -k AGT
h -t 0.109714286 -s 20 -d -1 -p cbr -e 512 -c 2 -a 0 -i 15 -k AGT
d -t 0.109714286 -s 20 -d -1 -p cbr -e 532 -c 2 -a 0 -i 9 -k RTR
+ -t 0.118857143 -s 20 -d -1 -p cbr -e 512 -c 2 -a 0 -i 16 -k AGT 
- -t 0.118857143 -s 20 -d -1 -p cbr -e 512 -c 2 -a 0 -i 16 -k AGT
h -t 0.118857143 -s 20 -d -1 -p cbr -e 512 -c 2 -a 0 -i 16 -k AGT
d -t 0.118857143 -s 20 -d -1 -p cbr -e 532 -c 2 -a 0 -i 10 -k RTR
+ -t 0.128000000 -s 20 -d -1 -p cbr -e 512 -c 2 -a 0 -i 17 -k AGT 
- -t 0.128000000 -s 20 -d -1 -p cbr -e 512 -c 2 -a 0 -i 17 -k AGT
h -t 0.128000000 -s 20 -d -1 -p cbr -e 512 -c 2 -a 0 -i 17 -k AGT
d -t 0.128000000 -s 20 -d -1 -p cbr -e 532 -c 2 -a 0 -i 11 -k RTR
+ -t 0.137142857 -s 20 -d -1 -p cbr -e 512 -c 2 -a 0 -i 18 -k AGT 
- -t 0.137142857 -s 20 -d -1 -p cbr -e 512 -c 2 -a 0 -i 18 -k AGT
h -t 0.137142857 -s 20 -d -1 -p cbr -e 512 -c 2 -a 0 -i 18 -k AGT
d -t 0.137142857 -s 20 -d -1 -p cbr -e 532 -c 2 -a 0 -i 13 -k RTR
+ -t 0.146285714 -s 20 -d -1 -p cbr -e 512 -c 2 -a 0 -i 19 -k AGT 
- -t 0.146285714 -s 20 -d -1 -p cbr -e 512 -c 2 -a 0 -i 19 -k AGT
h -t 0.146285714 -s 20 -d -1 -p cbr -e 512 -c 2 -a 0 -i 19 -k AGT
d -t 0.146285714 -s 20 -d -1 -p cbr -e 532 -c 2 -a 0 -i 14 -k RTR
+ -t 0.155428571 -s 20 -d -1 -p cbr -e 512 -c 2 -a 0 -i 20 -k AGT 
- -t 0.155428571 -s 20 -d -1 -p cbr -e 512 -c 2 -a 0 -i 20 -k AGT
h -t 0.155428571 -s 20 -d -1 -p cbr -e 512 -c 2 -a 0 -i 20 -k AGT
d -t 0.155428571 -s 20 -d -1 -p cbr -e 532 -c 2 -a 0 -i 15 -k RTR
+ -t 0.164571429 -s 20 -d -1 -p cbr -e 512 -c 2 -a 0 -i 21 -k AGT 
- -t 0.164571429 -s 20 -d -1 -p cbr -e 512 -c 2 -a 0 -i 21 -k AGT
h -t 0.164571429 -s 20 -d -1 -p cbr -e 512 -c 2 -a 0 -i 21 -k AGT
d -t 0.164571429 -s 20 -d -1 -p cbr -e 532 -c 2 -a 0 -i 16 -k RTR
+ -t 0.173714286 -s 20 -d -1 -p cbr -e 512 -c 2 -a 0 -i 22 -k AGT 
- -t 0.173714286 -s 20 -d -1 -p cbr -e 512 -c 2 -a 0 -i 22 -k AGT
h -t 0.173714286 -s 20 -d -1 -p cbr -e 512 -c 2 -a 0 -i 22 -k AGT
d -t 0.173714286 -s 20 -d -1 -p cbr -e 532 -c 2 -a 0 -i 17 -k RTR
+ -t 0.182857143 -s 20 -d -1 -p cbr -e 512 -c 2 -a 0 -i 24 -k AGT 
- -t 0.182857143 -s 20 -d -1 -p cbr -e 512 -c 2 -a 0 -i 24 -k AGT
h -t 0.182857143 -s 20 -d -1 -p cbr -e 512 -c 2 -a 0 -i 24 -k AGT
d -t 0.182857143 -s 20 -d -1 -p cbr -e 532 -c 2 -a 0 -i 18 -k RTR
+ -t 0.183867662 -s 3 -d -1 -p message -e 32 -c 2 -a 0 -i 23 -k RTR 
- -t 0.183867662 -s 3 -d -1 -p message -e 32 -c 2 -a 0 -i 23 -k RTR
h -t 0.183867662 -s 3 -d -1 -p message -e 32 -c 2 -a 0 -i 23 -k RTR
r -t 0.184767828 -s 2 -d -1 -p message -e 32 -c 2 -a 0 -i 23 -k RTR
r -t 0.184767828 -s 13 -d -1 -p message -e 32 -c 2 -a 0 -i 23 -k RTR
r -t 0.184767828 -s 4 -d -1 -p message -e 32 -c 2 -a 0 -i 23 -k RTR
r -t 0.184767897 -s 12 -d -1 -p message -e 32 -c 2 -a 0 -i 23 -k RTR
r -t 0.184767897 -s 14 -d -1 -p message -e 32 -c 2 -a 0 -i 23 -k RTR
r -t 0.184767995 -s 1 -d -1 -p message -e 32 -c 2 -a 0 -i 23 -k RTR
r -t 0.184767995 -s 5 -d -1 -p message -e 32 -c 2 -a 0 -i 23 -k RTR
r -t 0.184768034 -s 11 -d -1 -p message -e 32 -c 2 -a 0 -i 23 -k RTR
r -t 0.184768034 -s 15 -d -1 -p message -e 32 -c 2 -a 0 -i 23 -k RTR
r -t 0.184768162 -s 0 -d -1 -p message -e 32 -c 2 -a 0 -i 23 -k RTR
r -t 0.184768162 -s 6 -d -1 -p message -e 32 -c 2 -a 0 -i 23 -k RTR
r -t 0.184768189 -s 10 -d -1 -p message -e 32 -c 2 -a 0 -i 23 -k RTR
r -t 0.184768189 -s 16 -d -1 -p message -e 32 -c 2 -a 0 -i 23 -k RTR
r -t 0.184768328 -s 7 -d -1 -p message -e 32 -c 2 -a 0 -i 23 -k RTR
r -t 0.184768341 -s 20 -d -1 -p message -e 32 -c 2 -a 0 -i 23 -k RTR
r -t 0.184768349 -s 17 -d -1 -p message -e 32 -c 2 -a 0 -i 23 -k RTR
r -t 0.184768495 -s 8 -d -1 -p message -e 32 -c 2 -a 0 -i 23 -k RTR
+ -t 0.192000000 -s 20 -d -1 -p cbr -e 512 -c 2 -a 0 -i 26 -k AGT 
- -t 0.192000000 -s 20 -d -1 -p cbr -e 512 -c 2 -a 0 -i 26 -k AGT
h -t 0.192000000 -s 20 -d -1 -p cbr -e 512 -c 2 -a 0 -i 26 -k AGT
d -t 0.192000000 -s 20 -d -1 -p cbr -e 532 -c 2 -a 0 -i 19 -k RTR
+ -t 0.192319784 -s 19 -d -1 -p message -e 32 -c 2 -a 0 -i 25 -k RTR 
- -t 0.192319784 -s 19 -d -1 -p message -e 32 -c 2 -a 0 -i 25 -k RTR
h -t 0.192319784 -s 19 -d -1 -p message -e 32 -c 2 -a 0 -i 25 -k RTR
r -t 0.193659951 -s 9 -d -1 -p message -e 32 -c 2 -a 0 -i 25 -k RTR
r -t 0.193659951 -s 18 -d -1 -p message -e 32 -c 2 -a 0 -i 25 -k RTR
r -t 0.193660020 -s 8 -d -1 -p message -e 32 -c 2 -a 0 -i 25 -k RTR
r -t 0.193660118 -s 17 -d -1 -p message -e 32 -c 2 -a 0 -i 25 -k RTR
r -t 0.193660157 -s 7 -d -1 -p message -e 32 -c 2 -a 0 -i 25 -k RTR
r -t 0.193660284 -s 16 -d -1 -p message -e 32 -c 2 -a 0 -i 25 -k RTR
r -t 0.193660311 -s 6 -d -1 -p message -e 32 -c 2 -a 0 -i 25 -k RTR
r -t 0.193660451 -s 15 -d -1 -p message -e 32 -c 2 -a 0 -i 25 -k RTR
r -t 0.193660472 -s 5 -d -1 -p message -e 32 -c 2 -a 0 -i 25 -k RTR
r -t 0.193660618 -s 14 -d -1 -p message -e 32 -c 2 -a 0 -i 25 -k RTR
n -t 0.200000 -s 20 -x 2.000000 -y 2.000000 -U 19.508897 -V 15.633392 -T 15.223823
+ -t 0.201142857 -s 20 -d -1 -p cbr -e 512 -c 2 -a 0 -i 27 -k AGT 
- -t 0.201142857 -s 20 -d -1 -p cbr -e 512 -c 2 -a 0 -i 27 -k AGT
h -t 0.201142857 -s 20 -d -1 -p cbr -e 512 -c 2 -a 0 -i 27 -k AGT
d -t 0.201142857 -s 20 -d -1 -p cbr -e 532 -c 2 -a 0 -i 20 -k RTR
+ -t 0.210285714 -s 20 -d -1 -p cbr -e 512 -c 2 -a 0 -i 28 -k AGT 
- -t 0.210285714 -s 20 -d -1 -p cbr -e 512 -c 2 -a 0 -i 28 -k AGT
h -t 0.210285714 -s 20 -d -1 -p cbr -e 512 -c 2 -a 0 -i 28 -k AGT
d -t 0.210285714 -s 20 -d -1 -p cbr -e 532 -c 2 -a 0 -i 21 -k RTR
+ -t 0.219428571 -s 20 -d -1 -p cbr -e 512 -c 2 -a 0 -i 29 -k AGT 
- -t 0.219428571 -s 20 -d -1 -p cbr -e 512 -c 2 -a 0 -i 29 -k AGT
h -t 0.219428571 -s 20 -d -1 -p cbr -e 512 -c 2 -a 0 -i 29 -k AGT
d -t 0.219428571 -s 20 -d -1 -p cbr -e 532 -c 2 -a 0 -i 22 -k RTR
+ -t 0.228571429 -s 20 -d -1 -p cbr -e 512 -c 2 -a 0 -i 31 -k AGT 
- -t 0.228571429 -s 20 -d -1 -p cbr -e 512 -c 2 -a 0 -i 31 -k AGT
h -t 0.228571429 -s 20 -d -1 -p cbr -e 512 -c 2 -a 0 -i 31 -k AGT
d -t 0.228571429 -s 20 -d -1 -p cbr -e 532 -c 2 -a 0 -i 24 -k RTR
+ -t 0.236529975 -s 15 -d -1 -p message -e 32 -c 2 -a 0 -i 30 -k RTR 
- -t 0.236529975 -s 15 -d -1 -p message -e 32 -c 2 -a 0 -i 30 -k RTR
h -t 0.236529975 -s 15 -d -1 -p message -e 32 -c 2 -a 0 -i 30 -k RTR
r -t 0.237410142 -s 5 -d -1 -p message -e 32 -c 2 -a 0 -i 30 -k RTR
r -t 0.237410142 -s 14 -d -1 -p message -e 32 -c 2 -a 0 -i 30 -k RTR
r -t 0.237410142 -s 16 -d -1 -p message -e 32 -c 2 -a 0 -i 30 -k RTR
r -t 0.237410211 -s 4 -d -1 -p message -e 32 -c 2 -a 0 -i 30 -k RTR
r -t 0.237410211 -s 6 -d -1 -p message -e 32 -c 2 -a 0 -i 30 -k RTR
r -t 0.237410309 -s 13 -d -1 -p message -e 32 -c 2 -a 0 -i 30 -k RTR
r -t 0.237410309 -s 17 -d -1 -p message -e 32 -c 2 -a 0 -i 30 -k RTR
r -t 0.237410348 -s 3 -d -1 -p message -e 32 -c 2 -a 0 -i 30 -k RTR
r -t 0.237410348 -s 7 -d -1 -p message -e 32 -c 2 -a 0 -i 30 -k RTR
r -t 0.237410475 -s 12 -d -1 -p message -e 32 -c 2 -a 0 -i 30 -k RTR
r -t 0.237410475 -s 18 -d -1 -p message -e 32 -c 2 -a 0 -i 30 -k RTR
r -t 0.237410502 -s 2 -d -1 -p message -e 32 -c 2 -a 0 -i 30 -k RTR
r -t 0.237410502 -s 8 -d -1 -p message -e 32 -c 2 -a 0 -i 30 -k RTR
r -t 0.237410642 -s 11 -d -1 -p message -e 32 -c 2 -a 0 -i 30 -k RTR
r -t 0.237410642 -s 19 -d -1 -p message -e 32 -c 2 -a 0 -i 30 -k RTR
r -t 0.237410663 -s 1 -d -1 -p message -e 32 -c 2 -a 0 -i 30 -k RTR
r -t 0.237410663 -s 9 -d -1 -p message -e 32 -c 2 -a 0 -i 30 -k RTR
r -t 0.237410809 -s 10 -d -1 -p message -e 32 -c 2 -a 0 -i 30 -k RTR
+ -t 0.237714286 -s 20 -d -1 -p cbr -e 512 -c 2 -a 0 -i 32 -k AGT 
- -t 0.237714286 -s 20 -d -1 -p cbr -e 512 -c 2 -a 0 -i 32 -k AGT
h -t 0.237714286 -s 20 -d -1 -p cbr -e 512 -c 2 -a 0 -i 32 -k AGT
d -t 0.237714286 -s 20 -d -1 -p cbr -e 532 -c 2 -a 0 -i 26 -k RTR
+ -t 0.246857143 -s 20 -d -1 -p cbr -e 512 -c 2 -a 0 -i 33 -k AGT 
- -t 0.246857143 -s 20 -d -1 -p cbr -e 512 -c 2 -a 0 -i 33 -k AGT
h -t 0.246857143 -s 20 -d -1 -p cbr -e 512 -c 2 -a 0 -i 33 -k AGT
d -t 0.246857143 -s 20 -d -1 -p cbr -e 532 -c 2 -a 0 -i 27 -k RTR
+ -t 0.256000000 -s 20 -d -1 -p cbr -e 512 -c 2 -a 0 -i 34 -k AGT 
- -t 0.256000000 -s 20 -d -1 -p cbr -e 512 -c 2 -a 0 -i 34 -k AGT
h -t 0.256000000 -s 20 -d -1 -p cbr -e 512 -c 2 -a 0 -i 34 -k AGT
d -t 0.256000000 -s 20 -d -1 -p cbr -e 532 -c 2 -a 0 -i 28 -k RTR
+ -t 0.265142857 -s 20 -d -1 -p cbr -e 512 -c 2 -a 0 -i 35 -k AGT 
- -t 0.265142857 -s 20 -d -1 -p cbr -e 512 -c 2 -a 0 -i 35 -k AGT
h -t 0.265142857 -s 20 -d -1 -p cbr -e 512 -c 2 -a 0 -i 35 -k AGT
d -t 0.265142857 -s 20 -d -1 -p cbr -e 532 -c 2 -a 0 -i 29 -k RTR
+ -t 0.274285714 -s 20 -d -1 -p cbr -e 512 -c 2 -a 0 -i 36 -k AGT 
- -t 0.274285714 -s 20 -d -1 -p cbr -e 512 -c 2 -a 0 -i 36 -k AGT
h -t 0.274285714 -s 20 -d -1 -p cbr -e 512 -c 2 -a 0 -i 36 -k AGT
d -t 0.274285714 -s 20 -d -1 -p cbr -e 532 -c 2 -a 0 -i 31 -k RTR
+ -t 0.283428571 -s 20 -d -1 -p cbr -e 512 -c 2 -a 0 -i 37 -k AGT 
- -t 0.283428571 -s 20 -d -1 -p cbr -e 512 -c 2 -a 0 -i 37 -k AGT
h -t 0.283428571 -s 20 -d -1 -p cbr -e 512 -c 2 -a 0 -i 37 -k AGT
d -t 0.283428571 -s 20 -d -1 -p cbr -e 532 -c 2 -a 0 -i 32 -k RTR
+ -t 0.292571429 -s 20 -d -1 -p cbr -e 512 -c 2 -a 0 -i 38 -k AGT 
- -t 0.292571429 -s 20 -d -1 -p cbr -e 512 -c 2 -a 0 -i 38 -k AGT
h -t 0.292571429 -s 20 -d -1 -p cbr -e 512 -c 2 -a 0 -i 38 -k AGT
d -t 0.292571429 -s 20 -d -1 -p cbr -e 532 -c 2 -a 0 -i 33 -k RTR
+ -t 0.301714286 -s 20 -d -1 -p cbr -e 512 -c 2 -a 0 -i 39 -k AGT 
- -t 0.301714286 -s 20 -d -1 -p cbr -e 512 -c 2 -a 0 -i 39 -k AGT
h -t 0.301714286 -s 20 -d -1 -p cbr -e 512 -c 2 -a 0 -i 39 -k AGT
d -t 0.301714286 -s 20 -d -1 -p cbr -e 532 -c 2 -a 0 -i 34 -k RTR
+ -t 0.310857143 -s 20 -d -1 -p cbr -e 512 -c 2 -a 0 -i 40 -k AGT 
- -t 0.310857143 -s 20 -d -1 -p cbr -e 512 -c 2 -a 0 -i 40 -k AGT
h -t 0.310857143 -s 20 -d -1 -p cbr -e 512 -c 2 -a 0 -i 40 -k AGT
d -t 0.310857143 -s 20 -d -1 -p cbr -e 532 -c 2 -a 0 -i 35 -k RTR
+ -t 0.320000000 -s 20 -d -1 -p cbr -e 512 -c 2 -a 0 -i 41 -k AGT 
- -t 0.320000000 -s 20 -d -1 -p cbr -e 512 -c 2 -a 0 -i 41 -k AGT
h -t 0.320000000 -s 20 -d -1 -p cbr -e 512 -c 2 -a 0 -i 41 -k AGT
d -t 0.320000000 -s 20 -d -1 -p cbr -e 532 -c 2 -a 0 -i 36 -k RTR
+ -t 0.329142857 -s 20 -d -1 -p cbr -e 512 -c 2 -a 0 -i 43 -k AGT 
- -t 0.329142857 -s 20 -d -1 -p cbr -e 512 -c 2 -a 0 -i 43 -k AGT
h -t 0.329142857 -s 20 -d -1 -p cbr -e 512 -c 2 -a 0 -i 43 -k AGT
d -t 0.329142857 -s 20 -d -1 -p cbr -e 532 -c 2 -a 0 -i 37 -k RTR
+ -t 0.334241087 -s 12 -d -1 -p message -e 32 -c 2 -a 0 -i 42 -k RTR 
- -t 0.334241087 -s 12 -d -1 -p message -e 32 -c 2 -a 0 -i 42 -k RTR
h -t 0.334241087 -s 12 -d -1 -p message -e 32 -c 2 -a 0 -i 42 -k RTR
r -t 0.335341254 -s 2 -d -1 -p message -e 32 -c 2 -a 0 -i 42 -k RTR
r -t 0.335341254 -s 11 -d -1 -p message -e 32 -c 2 -a 0 -i 42 -k RTR
r -t 0.335341254 -s 13 -d -1 -p message -e 32 -c 2 -a 0 -i 42 -k RTR
r -t 0.335341323 -s 1 -d -1 -p message -e 32 -c 2 -a 0 -i 42 -k RTR
r -t 0.335341323 -s 3 -d -1 -p message -e 32 -c 2 -a 0 -i 42 -k RTR
r -t 0.335341420 -s 10 -d -1 -p message -e 32 -c 2 -a 0 -i 42 -k RTR
r -t 0.335341420 -s 14 -d -1 -p message -e 32 -c 2 -a 0 -i 42 -k RTR
r -t 0.335341460 -s 0 -d -1 -p message -e 32 -c 2 -a 0 -i 42 -k RTR
r -t 0.335341460 -s 4 -d -1 -p message -e 32 -c 2 -a 0 -i 42 -k RTR
r -t 0.335341587 -s 15 -d -1 -p message -e 32 -c 2 -a 0 -i 42 -k RTR
r -t 0.335341614 -s 5 -d -1 -p message -e 32 -c 2 -a 0 -i 42 -k RTR
r -t 0.335341668 -s 20 -d -1 -p message -e 32 -c 2 -a 0 -i 42 -k RTR
r -t 0.335341754 -s 16 -d -1 -p message -e 32 -c 2 -a 0 -i 42 -k RTR
r -t 0.335341774 -s 6 -d -1 -p message -e 32 -c 2 -a 0 -i 42 -k RTR
r -t 0.335341920 -s 17 -d -1 -p message -e 32 -c 2 -a 0 -i 42 -k RTR
+ -t 0.338285714 -s 20 -d -1 -p cbr -e 512 -c 2 -a 0 -i 44 -k AGT 
- -t 0.338285714 -s 20 -d -1 -p cbr -e 512 -c 2 -a 0 -i 44 -k AGT
h -t 0.338285714 -s 20 -d -1 -p cbr -e 512 -c 2 -a 0 -i 44 -k AGT
d -t 0.338285714 -s 20 -d -1 -p cbr -e 532 -c 2 -a 0 -i 38 -k RTR
+ -t 0.347428571 -s 20 -d -1 -p cbr -e 512 -c 2 -a 0 -i 45 -k AGT 
- -t 0.347428571 -s 20 -d -1 -p cbr -e 512 -c 2 -a 0 -i 45 -k AGT
h -t 0.347428571 -s 20 -d -1 -p cbr -e 512 -c 2 -a 0 -i 45 -k AGT
d -t 0.347428571 -s 20 -d -1 -p cbr -e 532 -c 2 -a 0 -i 39 -k RTR
+ -t 0.352180445 -s 18 -d -1 -p message -e 32 -c 2 -a 0 -i 46 -k RTR 
- -t 0.352180445 -s 18 -d -1 -p message -e 32 -c 2 -a 0 -i 46 -k RTR
h -t 0.352180445 -s 18 -d -1 -p message -e 32 -c 2 -a 0 -i 46 -k RTR
r -t 0.353000612 -s 8 -d -1 -p message -e 32 -c 2 -a 0 -i 46 -k RTR
r -t 0.353000612 -s 17 -d -1 -p message -e 32 -c 2 -a 0 -i 46 -k RTR
r -t 0.353000612 -s 19 -d -1 -p message -e 32 -c 2 -a 0 -i 46 -k RTR
r -t 0.353000681 -s 7 -d -1 -p message -e 32 -c 2 -a 0 -i 46 -k RTR
r -t 0.353000681 -s 9 -d -1 -p message -e 32 -c 2 -a 0 -i 46 -k RTR
r -t 0.353000778 -s 16 -d -1 -p message -e 32 -c 2 -a 0 -i 46 -k RTR
r -t 0.353000818 -s 6 -d -1 -p message -e 32 -c 2 -a 0 -i 46 -k RTR
r -t 0.353000945 -s 15 -d -1 -p message -e 32 -c 2 -a 0 -i 46 -k RTR
r -t 0.353000972 -s 5 -d -1 -p message -e 32 -c 2 -a 0 -i 46 -k RTR
r -t 0.353001112 -s 14 -d -1 -p message -e 32 -c 2 -a 0 -i 46 -k RTR
r -t 0.353001132 -s 4 -d -1 -p message -e 32 -c 2 -a 0 -i 46 -k RTR
r -t 0.353001278 -s 13 -d -1 -p message -e 32 -c 2 -a 0 -i 46 -k RTR
+ -t 0.356571429 -s 20 -d -1 -p cbr -e 512 -c 2 -a 0 -i 47 -k AGT 
- -t 0.356571429 -s 20 -d -1 -p cbr -e 512 -c 2 -a 0 -i 47 -k AGT
h -t 0.356571429 -s 20 -d -1 -p cbr -e 512 -c 2 -a 0 -i 47 -k AGT
d -t 0.356571429 -s 20 -d -1 -p cbr -e 532 -c 2 -a 0 -i 40 -k RTR
+ -t 0.365714286 -s 20 -d -1 -p cbr -e 512 -c 2 -a 0 -i 48 -k AGT 
- -t 0.365714286 -s 20 -d -1 -p cbr -e 512 -c 2 -a 0 -i 48 -k AGT
h -t 0.365714286 -s 20 -d -1 -p cbr -e 512 -c 2 -a 0 -i 48 -k AGT
d -t 0.365714286 -s 20 -d -1 -p cbr -e 532 -c 2 -a 0 -i 41 -k RTR
+ -t 0.374857143 -s 20 -d -1 -p cbr -e 512 -c 2 -a 0 -i 49 -k AGT 
- -t 0.374857143 -s 20 -d -1 -p cbr -e 512 -c 2 -a 0 -i 49 -k AGT
h -t 0.374857143 -s 20 -d -1 -p cbr -e 512 -c 2 -a 0 -i 49 -k AGT
d -t 0.374857143 -s 20 -d -1 -p cbr -e 532 -c 2 -a 0 -i 43 -k RTR
+ -t 0.384000000 -s 20 -d -1 -p cbr -e 512 -c 2 -a 0 -i 50 -k AGT 
- -t 0.384000000 -s 20 -d -1 -p cbr -e 512 -c 2 -a 0 -i 50 -k AGT
h -t 0.384000000 -s 20 -d -1 -p cbr -e 512 -c 2 -a 0 -i 50 -k AGT
d -t 0.384000000 -s 20 -d -1 -p cbr -e 532 -c 2 -a 0 -i 44 -k RTR
+ -t 0.393142857 -s 20 -d -1 -p cbr -e 512 -c 2 -a 0 -i 51 -k AGT 
- -t 0.393142857 -s 20 -d -1 -p cbr -e 512 -c 2 -a 0 -i 51 -k AGT
h -t 0.393142857 -s 20 -d -1 -p cbr -e 512 -c 2 -a 0 -i 51 -k AGT
d -t 0.393142857 -s 20 -d -1 -p cbr -e 532 -c 2 -a 0 -i 45 -k RTR
+ -t 0.402285714 -s 20 -d -1 -p cbr -e 512 -c 2 -a 0 -i 52 -k AGT 
- -t 0.402285714 -s 20 -d -1 -p cbr -e 512 -c 2 -a 0 -i 52 -k AGT
h -t 0.402285714 -s 20 -d -1 -p cbr -e 512 -c 2 -a 0 -i 52 -k AGT
d -t 0.402285714 -s 20 -d -1 -p cbr -e 532 -c 2 -a 0 -i 47 -k RTR
+ -t 0.411428571 -s 20 -d -1 -p cbr -e 512 -c 2 -a 0 -i 53 -k AGT 
- -t 0.411428571 -s 20 -d -1 -p cbr -e 512 -c 2 -a 0 -i 53 -k AGT
h -t 0.411428571 -s 20 -d -1 -p cbr -e 512 -c 2 -a 0 -i 53 -k AGT
d -t 0.411428571 -s 20 -d -1 -p cbr -e 532 -c 2 -a 0 -i 48 -k RTR
+ -t 0.420571429 -s 20 -d -1 -p cbr -e 512 -c 2 -a 0 -i 54 -k AGT 
- -t 0.420571429 -s 20 -d -1 -p cbr -e 512 -c 2 -a 0 -i 54 -k AGT
h -t 0.420571429 -s 20 -d -1 -p cbr -e 512 -c 2 -a 0 -i 54 -k AGT
d -t 0.420571429 -s 20 -d -1 -p cbr -e 532 -c 2 -a 0 -i 49 -k RTR
+ -t 0.429714286 -s 20 -d -1 -p cbr -e 512 -c 2 -a 0 -i 55 -k AGT 
- -t 0.429714286 -s 20 -d -1 -p cbr -e 512 -c 2 -a 0 -i 55 -k AGT
h -t 0.429714286 -s 20 -d -1 -p cbr -e 512 -c 2 -a 0 -i 55 -k AGT
d -t 0.429714286 -s 20 -d -1 -p cbr -e 532 -c 2 -a 0 -i 50 -k RTR
+ -t 0.438857143 -s 20 -d -1 -p cbr -e 512 -c 2 -a 0 -i 56 -k AGT 
- -t 0.438857143 -s 20 -d -1 -p cbr -e 512 -c 2 -a 0 -i 56 -k AGT
h -t 0.438857143 -s 20 -d -1 -p cbr -e 512 -c 2 -a 0 -i 56 -k AGT
d -t 0.438857143 -s 20 -d -1 -p cbr -e 532 -c 2 -a 0 -i 51 -k RTR
+ -t 0.448000000 -s 20 -d -1 -p cbr -e 512 -c 2 -a 0 -i 57 -k AGT 
- -t 0.448000000 -s 20 -d -1 -p cbr -e 512 -c 2 -a 0 -i 57 -k AGT
h -t 0.448000000 -s 20 -d -1 -p cbr -e 512 -c 2 -a 0 -i 57 -k AGT
d -t 0.448000000 -s 20 -d -1 -p cbr -e 532 -c 2 -a 0 -i 52 -k RTR
+ -t 0.457142857 -s 20 -d -1 -p cbr -e 512 -c 2 -a 0 -i 58 -k AGT 
- -t 0.457142857 -s 20 -d -1 -p cbr -e 512 -c 2 -a 0 -i 58 -k AGT
h -t 0.457142857 -s 20 -d -1 -p cbr -e 512 -c 2 -a 0 -i 58 -k AGT
d -t 0.457142857 -s 20 -d -1 -p cbr -e 532 -c 2 -a 0 -i 53 -k RTR
+ -t 0.466285714 -s 20 -d -1 -p cbr -e 512 -c 2 -a 0 -i 59 -k AGT 
- -t 0.466285714 -s 20 -d -1 -p cbr -e 512 -c 2 -a 0 -i 59 -k AGT
h -t 0.466285714 -s 20 -d -1 -p cbr -e 512 -c 2 -a 0 -i 59 -k AGT
d -t 0.466285714 -s 20 -d -1 -p cbr -e 532 -c 2 -a 0 -i 54 -k RTR
+ -t 0.471821745 -s 8 -d -1 -p message -e 32 -c 2 -a 0 -i 60 -k RTR 
- -t 0.471821745 -s 8 -d -1 -p message -e 32 -c 2 -a 0 -i 60 -k RTR
h -t 0.471821745 -s 8 -d -1 -p message -e 32 -c 2 -a 0 -i 60 -k RTR
r -t 0.472861912 -s 7 -d -1 -p message -e 32 -c 2 -a 0 -i 60 -k RTR
r -t 0.472861912 -s 18 -d -1 -p message -e 32 -c 2 -a 0 -i 60 -k RTR
r -t 0.472861912 -s 9 -d -1 -p message -e 32 -c 2 -a 0 -i 60 -k RTR
r -t 0.472861981 -s 17 -d -1 -p message -e 32 -c 2 -a 0 -i 60 -k RTR
r -t 0.472861981 -s 19 -d -1 -p message -e 32 -c 2 -a 0 -i 60 -k RTR
r -t 0.472862079 -s 6 -d -1 -p message -e 32 -c 2 -a 0 -i 60 -k RTR
r -t 0.472862118 -s 16 -d -1 -p message -e 32 -c 2 -a 0 -i 60 -k RTR
r -t 0.472862245 -s 5 -d -1 -p message -e 32 -c 2 -a 0 -i 60 -k RTR
r -t 0.472862272 -s 15 -d -1 -p message -e 32 -c 2 -a 0 -i 60 -k RTR
r -t 0.472862412 -s 4 -d -1 -p message -e 32 -c 2 -a 0 -i 60 -k RTR
r -t 0.472862432 -s 14 -d -1 -p message -e 32 -c 2 -a 0 -i 60 -k RTR
r -t 0.472862579 -s 3 -d -1 -p message -e 32 -c 2 -a 0 -i 60 -k RTR
+ -t 0.475428571 -s 20 -d -1 -p cbr -e 512 -c 2 -a 0 -i 61 -k AGT 
- -t 0.475428571 -s 20 -d -1 -p cbr -e 512 -c 2 -a 0 -i 61 -k AGT
h -t 0.475428571 -s 20 -d -1 -p cbr -e 512 -c 2 -a 0 -i 61 -k AGT
d -t 0.475428571 -s 20 -d -1 -p cbr -e 532 -c 2 -a 0 -i 55 -k RTR
+ -t 0.484571429 -s 20 -d -1 -p cbr -e 512 -c 2 -a 0 -i 62 -k AGT 
- -t 0.484571429 -s 20 -d -1 -p cbr -e 512 -c 2 -a 0 -i 62 -k AGT
h -t 0.484571429 -s 20 -d -1 -p cbr -e 512 -c 2 -a 0 -i 62 -k AGT
d -t 0.484571429 -s 20 -d -1 -p cbr -e 532 -c 2 -a 0 -i 56 -k RTR
+ -t 0.493714286 -s 20 -d -1 -p cbr -e 512 -c 2 -a 0 -i 63 -k AGT 
- -t 0.493714286 -s 20 -d -1 -p cbr -e 512 -c 2 -a 0 -i 63 -k AGT
h -t 0.493714286 -s 20 -d -1 -p cbr -e 512 -c 2 -a 0 -i 63 -k AGT
d -t 0.493714286 -s 20 -d -1 -p cbr -e 532 -c 2 -a 0 -i 57 -k RTR
+ -t 0.502857143 -s 20 -d -1 -p cbr -e 512 -c 2 -a 0 -i 64 -k AGT 
- -t 0.502857143 -s 20 -d -1 -p cbr -e 512 -c 2 -a 0 -i 64 -k AGT
h -t 0.502857143 -s 20 -d -1 -p cbr -e 512 -c 2 -a 0 -i 64 -k AGT
d -t 0.502857143 -s 20 -d -1 -p cbr -e 532 -c 2 -a 0 -i 58 -k RTR
+ -t 0.512000000 -s 20 -d -1 -p cbr -e 512 -c 2 -a 0 -i 65 -k AGT 
- -t 0.512000000 -s 20 -d -1 -p cbr -e 512 -c 2 -a 0 -i 65 -k AGT
h -t 0.512000000 -s 20 -d -1 -p cbr -e 512 -c 2 -a 0 -i 65 -k AGT
d -t 0.512000000 -s 20 -d -1 -p cbr -e 532 -c 2 -a 0 -i 59 -k RTR
+ -t 0.521142857 -s 20 -d -1 -p cbr -e 512 -c 2 -a 0 -i 66 -k AGT 
- -t 0.521142857 -s 20 -d -1 -p cbr -e 512 -c 2 -a 0 -i 66 -k AGT
h -t 0.521142857 -s 20 -d -1 -p cbr -e 512 -c 2 -a 0 -i 66 -k AGT
d -t 0.521142857 -s 20 -d -1 -p cbr -e 532 -c 2 -a 0 -i 61 -k RTR
+ -t 0.530285714 -s 20 -d -1 -p cbr -e 512 -c 2 -a 0 -i 67 -k AGT 
- -t 0.530285714 -s 20 -d -1 -p cbr -e 512 -c 2 -a 0 -i 67 -k AGT
h -t 0.530285714 -s 20 -d -1 -p cbr -e 512 -c 2 -a 0 -i 67 -k AGT
d -t 0.530285714 -s 20 -d -1 -p cbr -e 532 -c 2 -a 0 -i 62 -k RTR
+ -t 0.539428571 -s 20 -d -1 -p cbr -e 512 -c 2 -a 0 -i 68 -k AGT 
- -t 0.539428571 -s 20 -d -1 -p cbr -e 512 -c 2 -a 0 -i 68 -k AGT
h -t 0.539428571 -s 20 -d -1 -p cbr -e 512 -c 2 -a 0 -i 68 -k AGT
d -t 0.539428571 -s 20 -d -1 -p cbr -e 532 -c 2 -a 0 -i 63 -k RTR
+ -t 0.548571429 -s 20 -d -1 -p cbr -e 512 -c 2 -a 0 -i 69 -k AGT 
- -t 0.548571429 -s 20 -d -1 -p cbr -e 512 -c 2 -a 0 -i 69 -k AGT
h -t 0.548571429 -s 20 -d -1 -p cbr -e 512 -c 2 -a 0 -i 69 -k AGT
d -t 0.548571429 -s 20 -d -1 -p cbr -e 532 -c 2 -a 0 -i 64 -k RTR
+ -t 0.557714286 -s 20 -d -1 -p cbr -e 512 -c 2 -a 0 -i 70 -k AGT 
- -t 0.557714286 -s 20 -d -1 -p cbr -e 512 -c 2 -a 0 -i 70 -k AGT
h -t 0.557714286 -s 20 -d -1 -p cbr -e 512 -c 2 -a 0 -i 70 -k AGT
d -t 0.557714286 -s 20 -d -1 -p cbr -e 532 -c 2 -a 0 -i 65 -k RTR
+ -t 0.566857143 -s 20 -d -1 -p cbr -e 512 -c 2 -a 0 -i 71 -k AGT 
- -t 0.566857143 -s 20 -d -1 -p cbr -e 512 -c 2 -a 0 -i 71 -k AGT
h -t 0.566857143 -s 20 -d -1 -p cbr -e 512 -c 2 -a 0 -i 71 -k AGT
d -t 0.566857143 -s 20 -d -1 -p cbr -e 532 -c 2 -a 0 -i 66 -k RTR
+ -t 0.576000000 -s 20 -d -1 -p cbr -e 512 -c 2 -a 0 -i 72 -k AGT 
- -t 0.576000000 -s 20 -d -1 -p cbr -e 512 -c 2 -a 0 -i 72 -k AGT
h -t 0.576000000 -s 20 -d -1 -p cbr -e 512 -c 2 -a 0 -i 72 -k AGT
d -t 0.576000000 -s 20 -d -1 -p cbr -e 532 -c 2 -a 0 -i 67 -k RTR
+ -t 0.585142857 -s 20 -d -1 -p cbr -e 512 -c 2 -a 0 -i 73 -k AGT 
- -t 0.585142857 -s 20 -d -1 -p cbr -e 512 -c 2 -a 0 -i 73 -k AGT
h -t 0.585142857 -s 20 -d -1 -p cbr -e 512 -c 2 -a 0 -i 73 -k AGT
d -t 0.585142857 -s 20 -d -1 -p cbr -e 532 -c 2 -a 0 -i 68 -k RTR
+ -t 0.594285714 -s 20 -d -1 -p cbr -e 512 -c 2 -a 0 -i 74 -k AGT 
- -t 0.594285714 -s 20 -d -1 -p cbr -e 512 -c 2 -a 0 -i 74 -k AGT
h -t 0.594285714 -s 20 -d -1 -p cbr -e 512 -c 2 -a 0 -i 74 -k AGT
d -t 0.594285714 -s 20 -d -1 -p cbr -e 532 -c 2 -a 0 -i 69 -k RTR
+ -t 0.603428571 -s 20 -d -1 -p cbr -e 512 -c 2 -a 0 -i 75 -k AGT 
- -t 0.603428571 -s 20 -d -1 -p cbr -e 512 -c 2 -a 0 -i 75 -k AGT
h -t 0.603428571 -s 20 -d -1 -p cbr -e 512 -c 2 -a 0 -i 75 -k AGT
d -t 0.603428571 -s 20 -d -1 -p cbr -e 532 -c 2 -a 0 -i 70 -k RTR
+ -t 0.612571429 -s 20 -d -1 -p cbr -e 512 -c 2 -a 0 -i 76 -k AGT 
- -t 0.612571429 -s 20 -d -1 -p cbr -e 512 -c 2 -a 0 -i 76 -k AGT
h -t 0.612571429 -s 20 -d -1 -p cbr -e 512 -c 2 -a 0 -i 76 -k AGT
d -t 0.612571429 -s 20 -d -1 -p cbr -e 532 -c 2 -a 0 -i 71 -k RTR
+ -t 0.621431286 -s 10 -d -1 -p message -e 32 -c 2 -a 0 -i 77 -k RTR 
- -t 0.621431286 -s 10 -d -1 -p message -e 32 -c 2 -a 0 -i 77 -k RTR
h -t 0.621431286 -s 10 -d -1 -p message -e 32 -c 2 -a 0 -i 77 -k RTR
+ -t 0.621714286 -s 20 -d -1 -p cbr -e 512 -c 2 -a 0 -i 78 -k AGT 
- -t 0.621714286 -s 20 -d -1 -p cbr -e 512 -c 2 -a 0 -i 78 -k AGT