s 0.000000000 _0_ AGT  --- 0 cbr 800 [0 0 0 0] [energy 3.000000 ei 0.000 es 0.000 et 0.000 er 0.000] ------- [0:0 49:0 32 0] [0] 0 0
r 0.000000000 _0_ RTR  --- 0 cbr 800 [0 0 0 0] [energy 3.000000 ei 0.000 es 0.000 et 0.000 er 0.000] ------- [0:0 49:0 32 0] [0] 0 0
s 0.000000000 _0_ RTR  --- 0 AODV 48 [0 0 0 0] [energy 3.000000 ei 0.000 es 0.000 et 0.000 er 0.000] ------- [0:255 -1:255 30 0] [0x2 1 1 [49 0] [0 4]] (REQUEST)
s 0.014285714 _0_ AGT  --- 1 cbr 800 [0 0 0 0] [energy 2.999973 ei 0.000 es 0.000 et 0.000 er 0.000] ------- [0:0 49:0 32 0] [1] 0 0
r 0.014285714 _0_ RTR  --- 1 cbr 800 [0 0 0 0] [energy 2.999973 ei 0.000 es 0.000 et 0.000 er 0.000] ------- [0:0 49:0 32 0] [1] 0 0
s 0.028571429 _0_ AGT  --- 2 cbr 800 [0 0 0 0] [energy 2.999973 ei 0.000 es 0.000 et 0.000 er 0.000] ------- [0:0 49:0 32 0] [2] 0 0
r 0.028571429 _0_ RTR  --- 2 cbr 800 [0 0 0 0] [energy 2.999973 ei 0.000 es 0.000 et 0.000 er 0.000] ------- [0:0 49:0 32 0] [2] 0 0
s 0.042857143 _0_ AGT  --- 3 cbr 800 [0 0 0 0] [energy 2.999973 ei 0.000 es 0.000 et 0.000 er 0.000] ------- [0:0 49:0 32 0] [3] 0 0
r 0.042857143 _0_ RTR  --- 3 cbr 800 [0 0 0 0] [energy 2.999973 ei 0.000 es 0.000 et 0.000 er 0.000] ------- [0:0 49:0 32 0] [3] 0 0
s 0.057142857 _0_ AGT  --- 4 cbr 800 [0 0 0 0] [energy 2.999973 ei 0.000 es 0.000 et 0.000 er 0.000] ------- [0:0 49:0 32 0] [4] 0 0
r 0.057142857 _0_ RTR  --- 4 cbr 800 [0 0 0 0] [energy 2.999973 ei 0.000 es 0.000 et 0.000 er 0.000] ------- [0:0 49:0 32 0] [4] 0 0
s 0.071428571 _0_ AGT  --- 5 cbr 800 [0 0 0 0] [energy 2.999973 ei 0.000 es 0.000 et 0.000 er 0.000] ------- [0:0 49:0 32 0] [5] 0 0
r 0.071428571 _0_ RTR  --- 5 cbr 800 [0 0 0 0] [energy 2.999973 ei 0.000 es 0.000 et 0.000 er 0.000] ------- [0:0 49:0 32 0] [5] 0 0
s 0.085714286 _0_ AGT  --- 6 cbr 800 [0 0 0 0] [energy 2.999973 ei 0.000 es 0.000 et 0.000 er 0.000] ------- [0:0 49:0 32 0] [6] 0 0
r 0.085714286 _0_ RTR  --- 6 cbr 800 [0 0 0 0] [energy 2.999973 ei 0.000 es 0.000 et 0.000 er 0.000] ------- [0:0 49:0 32 0] [6] 0 0
s 0.100000000 _0_ AGT  --- 7 cbr 800 [0 0 0 0] [energy 2.999973 ei 0.000 es 0.000 et 0.000 er 0.000] ------- [0:0 49:0 32 0] [7] 0 0
r 0.100000000 _0_ RTR  --- 7 cbr 800 [0 0 0 0] [energy 2.999973 ei 0.000 es 0.000 et 0.000 er 0.000] ------- [0:0 49:0 32 0] [7] 0 0
s 0.114285714 _0_ AGT  --- 8 cbr 800 [0 0 0 0] [energy 2.999973 ei 0.000 es 0.000 et 0.000 er 0.000] ------- [0:0 49:0 32 0] [8] 0 0
r 0.114285714 _0_ RTR  --- 8 cbr 800 [0 0 0 0] [energy 2.999973 ei 0.000 es 0.000 et 0.000 er 0.000] ------- [0:0 49:0 32 0] [8] 0 0
s 0.128571429 _0_ AGT  --- 9 cbr 800 [0 0 0 0] [energy 2.999973 ei 0.000 es 0.000 et 0.000 er 0.000] ------- [0:0 49:0 32 0] [9] 0 0
r 0.128571429 _0_ RTR  --- 9 cbr 800 [0 0 0 0] [energy 2.999973 ei 0.000 es 0.000 et 0.000 er 0.000] ------- [0:0 49:0 32 0] [9] 0 0
s 0.142857143 _0_ AGT  --- 10 cbr 800 [0 0 0 0] [energy 2.999973 ei 0.000 es 0.000 et 0.000 er 0.000] ------- [0:0 49:0 32 0] [10] 0 0
r 0.142857143 _0_ RTR  --- 10 cbr 800 [0 0 0 0] [energy 2.999973 ei 0.000 es 0.000 et 0.000 er 0.000] ------- [0:0 49:0 32 0] [10] 0 0
s 0.157142857 _0_ AGT  --- 11 cbr 800 [0 0 0 0] [energy 2.999973 ei 0.000 es 0.000 et 0.000 er 0.000] ------- [0:0 49:0 32 0] [11] 0 0
r 0.157142857 _0_ RTR  --- 11 cbr 800 [0 0 0 0] [energy 2.999973 ei 0.000 es 0.000 et 0.000 er 0.000] ------- [0:0 49:0 32 0] [11] 0 0
s 0.171428571 _0_ AGT  --- 12 cbr 800 [0 0 0 0] [energy 2.999973 ei 0.000 es 0.000 et 0.000 er 0.000] ------- [0:0 49:0 32 0] [12] 0 0
r 0.171428571 _0_ RTR  --- 12 cbr 800 [0 0 0 0] [energy 2.999973 ei 0.000 es 0.000 et 0.000 er 0.000] ------- [0:0 49:0 32 0] [12] 0 0
s 0.185714286 _0_ AGT  --- 13 cbr 800 [0 0 0 0] [energy 2.999973 ei 0.000 es 0.000 et 0.000 er 0.000] ------- [0:0 49:0 32 0] [13] 0 0
r 0.185714286 _0_ RTR  --- 13 cbr 800 [0 0 0 0] [energy 2.999973 ei 0.000 es 0.000 et 0.000 er 0.000] ------- [0:0 49:0 32 0] [13] 0 0
s 0.200000000 _0_ AGT  --- 14 cbr 800 [0 0 0 0] [energy 2.999973 ei 0.000 es 0.000 et 0.000 er 0.000] ------- [0:0 49:0 32 0] [14] 0 0
r 0.200000000 _0_ RTR  --- 14 cbr 800 [0 0 0 0] [energy 2.999973 ei 0.000 es 0.000 et 0.000 er 0.000] ------- [0:0 49:0 32 0] [14] 0 0
s 0.214285714 _0_ AGT  --- 15 cbr 800 [0 0 0 0] [energy 2.999973 ei 0.000 es 0.000 et 0.000 er 0.000] ------- [0:0 49:0 32 0] [15] 0 0
r 0.214285714 _0_ RTR  --- 15 cbr 800 [0 0 0 0] [energy 2.999973 ei 0.000 es 0.000 et 0.000 er 0.000] ------- [0:0 49:0 32 0] [15] 0 0
s 0.228571429 _0_ AGT  --- 16 cbr 800 [0 0 0 0] [energy 2.999973 ei 0.000 es 0.000 et 0.000 er 0.000] ------- [0:0 49:0 32 0] [16] 0 0
r 0.228571429 _0_ RTR  --- 16 cbr 800 [0 0 0 0] [energy 2.999973 ei 0.000 es 0.000 et 0.000 er 0.000] ------- [0:0 49:0 32 0] [16] 0 0
s 0.242857143 _0_ AGT  --- 17 cbr 800 [0 0 0 0] [energy 2.999973 ei 0.000 es 0.000 et 0.000 er 0.000] ------- [0:0 49:0 32 0] [17] 0 0
r 0.242857143 _0_ RTR  --- 17 cbr 800 [0 0 0 0] [energy 2.999973 ei 0.000 es 0.000 et 0.000 er 0.000] ------- [0:0 49:0 32 0] [17] 0 0
s 0.257142857 _0_ AGT  --- 18 cbr 800 [0 0 0 0] [energy 2.999973 ei 0.000 es 0.000 et 0.000 er 0.000] ------- [0:0 49:0 32 0] [18] 0 0
r 0.257142857 _0_ RTR  --- 18 cbr 800 [0 0 0 0] [energy 2.999973 ei 0.000 es 0.000 et 0.000 er 0.000] ------- [0:0 49:0 32 0] [18] 0 0
s 0.271428571 _0_ AGT  --- 19 cbr 800 [0 0 0 0] [energy 2.999973 ei 0.000 es 0.000 et 0.000 er 0.000] ------- [0:0 49:0 32 0] [19] 0 0
r 0.271428571 _0_ RTR  --- 19 cbr 800 [0 0 0 0] [energy 2.999973 ei 0.000 es 0.000 et 0.000 er 0.000] ------- [0:0 49:0 32 0] [19] 0 0
s 0.285714286 _0_ AGT  --- 20 cbr 800 [0 0 0 0] [energy 2.999973 ei 0.000 es 0.000 et 0.000 er 0.000] ------- [0:0 49:0 32 0] [20] 0 0
r 0.285714286 _0_ RTR  --- 20 cbr 800 [0 0 0 0] [energy 2.999973 ei 0.000 es 0.000 et 0.000 er 0.000] ------- [0:0 49:0 32 0] [20] 0 0
s 0.300000000 _0_ AGT  --- 21 cbr 800 [0 0 0 0] [energy 2.999973 ei 0.000 es 0.000 et 0.000 er 0.000] ------- [0:0 49:0 32 0] [21] 0 0
r 0.300000000 _0_ RTR  --- 21 cbr 800 [0 0 0 0] [energy 2.999973 ei 0.000 es 0.000 et 0.000 er 0.000] ------- [0:0 49:0 32 0] [21] 0 0
s 0.314285714 _0_ AGT  --- 22 cbr 800 [0 0 0 0] [energy 2.999973 ei 0.000 es 0.000 et 0.000 er 0.000] ------- [0:0 49:0 32 0] [22] 0 0
r 0.314285714 _0_ RTR  --- 22 cbr 800 [0 0 0 0] [energy 2.999973 ei 0.000 es 0.000 et 0.000 er 0.000] ------- [0:0 49:0 32 0] [22] 0 0
s 0.328571429 _0_ AGT  --- 23 cbr 800 [0 0 0 0] [energy 2.999973 ei 0.000 es 0.000 et 0.000 er 0.000] ------- [0:0 49:0 32 0] [23] 0 0
r 0.328571429 _0_ RTR  --- 23 cbr 800 [0 0 0 0] [energy 2.999973 ei 0.000 es 0.000 et 0.000 er 0.000] ------- [0:0 49:0 32 0] [23] 0 0
s 0.342857143 _0_ AGT  --- 24 cbr 800 [0 0 0 0] [energy 2.999973 ei 0.000 es 0.000 et 0.000 er 0.000] ------- [0:0 49:0 32 0] [24] 0 0
r 0.342857143 _0_ RTR  --- 24 cbr 800 [0 0 0 0] [energy 2.999973 ei 0.000 es 0.000 et 0.000 er 0.000] ------- [0:0 49:0 32 0] [24] 0 0
s 0.357142857 _0_ AGT  --- 25 cbr 800 [0 0 0 0] [energy 2.999973 ei 0.000 es 0.000 et 0.000 er 0.000] ------- [0:0 49:0 32 0] [25] 0 0
r 0.357142857 _0_ RTR  --- 25 cbr 800 [0 0 0 0] [energy 2.999973 ei 0.000 es 0.000 et 0.000 er 0.000] ------- [0:0 49:0 32 0] [25] 0 0
s 0.371428571 _0_ AGT  --- 26 cbr 800 [0 0 0 0] [energy 2.999973 ei 0.000 es 0.000 et 0.000 er 0.000] ------- [0:0 49:0 32 0] [26] 0 0
r 0.371428571 _0_ RTR  --- 26 cbr 800 [0 0 0 0] [energy 2.999973 ei 0.000 es 0.000 et 0.000 er 0.000] ------- [0:0 49:0 32 0] [26] 0 0
s 0.385714286 _0_ AGT  --- 27 cbr 800 [0 0 0 0] [energy 2.999973 ei 0.000 es 0.000 et 0.000 er 0.000] ------- [0:0 49:0 32 0] [27] 0 0
r 0.385714286 _0_ RTR  --- 27 cbr 800 [0 0 0 0] [energy 2.999973 ei 0.000 es 0.000 et 0.000 er 0.000] ------- [0:0 49:0 32 0] [27] 0 0
s 0.400000000 _0_ AGT  --- 28 cbr 800 [0 0 0 0] [energy 2.999973 ei 0.000 es 0.000 et 0.000 er 0.000] ------- [0:0 49:0 32 0] [28] 0 0
r 0.400000000 _0_ RTR  --- 28 cbr 800 [0 0 0 0] [energy 2.999973 ei 0.000 es 0.000 et 0.000 er 0.000] ------- [0:0 49:0 32 0] [28] 0 0
s 0.414285714 _0_ AGT  --- 29 cbr 800 [0 0 0 0] [energy 2.999973 ei 0.000 es 0.000 et 0.000 er 0.000] ------- [0:0 49:0 32 0] [29] 0 0
r 0.414285714 _0_ RTR  --- 29 cbr 800 [0 0 0 0] [energy 2.999973 ei 0.000 es 0.000 et 0.000 er 0.000] ------- [0:0 49:0 32 0] [29] 0 0
s 0.428571429 _0_ AGT  --- 30 cbr 800 [0 0 0 0] [energy 2.999973 ei 0.000 es 0.000 et 0.000 er 0.000] ------- [0:0 49:0 32 0] [30] 0 0
r 0.428571429 _0_ RTR  --- 30 cbr 800 [0 0 0 0] [energy 2.999973 ei 0.000 es 0.000 et 0.000 er 0.000] ------- [0:0 49:0 32 0] [30] 0 0
s 0.442857143 _0_ AGT  --- 31 cbr 800 [0 0 0 0] [energy 2.999973 ei 0.000 es 0.000 et 0.000 er 0.000] ------- [0:0 49:0 32 0] [31] 0 0
r 0.442857143 _0_ RTR  --- 31 cbr 800 [0 0 0 0] [energy 2.999973 ei 0.000 es 0.000 et 0.000 er 0.000] ------- [0:0 49:0 32 0] [31] 0 0
s 0.457142857 _0_ AGT  --- 32 cbr 800 [0 0 0 0] [energy 2.999973 ei 0.000 es 0.000 et 0.000 er 0.000] ------- [0:0 49:0 32 0] [32] 0 0
r 0.457142857 _0_ RTR  --- 32 cbr 800 [0 0 0 0] [energy 2.999973 ei 0.000 es 0.000 et 0.000 er 0.000] ------- [0:0 49:0 32 0] [32] 0 0
s 0.471428571 _0_ AGT  --- 33 cbr 800 [0 0 0 0] [energy 2.999973 ei 0.000 es 0.000 et 0.000 er 0.000] ------- [0:0 49:0 32 0] [33] 0 0
r 0.471428571 _0_ RTR  --- 33 cbr 800 [0 0 0 0] [energy 2.999973 ei 0.000 es 0.000 et 0.000 er 0.000] ------- [0:0 49:0 32 0] [33] 0 0
s 0.485714286 _0_ AGT  --- 34 cbr 800 [0 0 0 0] [energy 2.999973 ei 0.000 es 0.000 et 0.000 er 0.000] ------- [0:0 49:0 32 0] [34] 0 0
r 0.485714286 _0_ RTR  --- 34 cbr 800 [0 0 0 0] [energy 2.999973 ei 0.000 es 0.000 et 0.000 er 0.000] ------- [0:0 49:0 32 0] [34] 0 0
s 0.500000000 _0_ AGT  --- 35 cbr 800 [0 0 0 0] [energy 2.999973 ei 0.000 es 0.000 et 0.000 er 0.000] ------- [0:0 49:0 32 0] [35] 0 0
r 0.500000000 _0_ RTR  --- 35 cbr 800 [0 0 0 0] [energy 2.999973 ei 0.000 es 0.000 et 0.000 er 0.000] ------- [0:0 49:0 32 0] [35] 0 0
s 0.514285714 _0_ AGT  --- 36 cbr 800 [0 0 0 0] [energy 2.999973 ei 0.000 es 0.000 et 0.000 er 0.000] ------- [0:0 49:0 32 0] [36] 0 0
r 0.514285714 _0_ RTR  --- 36 cbr 800 [0 0 0 0] [energy 2.999973 ei 0.000 es 0.000 et 0.000 er 0.000] ------- [0:0 49:0 32 0] [36] 0 0
s 0.528571429 _0_ AGT  --- 37 cbr 800 [0 0 0 0] [energy 2.999973 ei 0.000 es 0.000 et 0.000 er 0.000] ------- [0:0 49:0 32 0] [37] 0 0
r 0.528571429 _0_ RTR  --- 37 cbr 800 [0 0 0 0] [energy 2.999973 ei 0.000 es 0.000 et 0.000 er 0.000] ------- [0:0 49:0 32 0] [37] 0 0
s 0.542857143 _0_ AGT  --- 38 cbr 800 [0 0 0 0] [energy 2.999973 ei 0.000 es 0.000 et 0.000 er 0.000] ------- [0:0 49:0 32 0] [38] 0 0
r 0.542857143 _0_ RTR  --- 38 cbr 800 [0 0 0 0] [energy 2.999973 ei 0.000 es 0.000 et 0.000 er 0.000] ------- [0:0 49:0 32 0] [38] 0 0
s 0.557142857 _0_ AGT  --- 39 cbr 800 [0 0 0 0] [energy 2.999973 ei 0.000 es 0.000 et 0.000 er 0.000] ------- [0:0 49:0 32 0] [39] 0 0
r 0.557142857 _0_ RTR  --- 39 cbr 800 [0 0 0 0] [energy 2.999973 ei 0.000 es 0.000 et 0.000 er 0.000] ------- [0:0 49:0 32 0] [39] 0 0
s 0.571428571 _0_ AGT  --- 40 cbr 800 [0 0 0 0] [energy 2.999973 ei 0.000 es 0.000 et 0.000 er 0.000] ------- [0:0 49:0 32 0] [40] 0 0
r 0.571428571 _0_ RTR  --- 40 cbr 800 [0 0 0 0] [energy 2.999973 ei 0.000 es 0.000 et 0.000 er 0.000] ------- [0:0 49:0 32 0] [40] 0 0
s 0.585714286 _0_ AGT  --- 41 cbr 800 [0 0 0 0] [energy 2.999973 ei 0.000 es 0.000 et 0.000 er 0.000] ------- [0:0 49:0 32 0] [41] 0 0
r 0.585714286 _0_ RTR  --- 41 cbr 800 [0 0 0 0] [energy 2.999973 ei 0.000 es 0.000 et 0.000 er 0.000] ------- [0:0 49:0 32 0] [41] 0 0
s 0.600000000 _0_ AGT  --- 42 cbr 800 [0 0 0 0] [energy 2.999973 ei 0.000 es 0.000 et 0.000 er 0.000] ------- [0:0 49:0 32 0] [42] 0 0
r 0.600000000 _0_ RTR  --- 42 cbr 800 [0 0 0 0] [energy 2.999973 ei 0.000 es 0.000 et 0.000 er 0.000] ------- [0:0 49:0 32 0] [42] 0 0
s 0.614285714 _0_ AGT  --- 43 cbr 800 [0 0 0 0] [energy 2.999973 ei 0.000 es 0.000 et 0.000 er 0.000] ------- [0:0 49:0 32 0] [43] 0 0
r 0.614285714 _0_ RTR  --- 43 cbr 800 [0 0 0 0] [energy 2.999973 ei 0.000 es 0.000 et 0.000 er 0.000] ------- [0:0 49:0 32 0] [43] 0 0
s 0.628571429 _0_ AGT  --- 44 cbr 800 [0 0 0 0] [energy 2.999973 ei 0.000 es 0.000 et 0.000 er 0.000] ------- [0:0 49:0 32 0] [44] 0 0
r 0.628571429 _0_ RTR  --- 44 cbr 800 [0 0 0 0] [energy 2.999973 ei 0.000 es 0.000 et 0.000 er 0.000] ------- [0:0 49:0 32 0] [44] 0 0
s 0.642857143 _0_ AGT  --- 45 cbr 800 [0 0 0 0] [energy 2.999973 ei 0.000 es 0.000 et 0.000 er 0.000] ------- [0:0 49:0 32 0] [45] 0 0
r 0.642857143 _0_ RTR  --- 45 cbr 800 [0 0 0 0] [energy 2.999973 ei 0.000 es 0.000 et 0.000 er 0.000] ------- [0:0 49:0 32 0] [45] 0 0
s 0.657142857 _0_ AGT  --- 46 cbr 800 [0 0 0 0] [energy 2.999973 ei 0.000 es 0.000 et 0.000 er 0.000] ------- [0:0 49:0 32 0] [46] 0 0
r 0.657142857 _0_ RTR  --- 46 cbr 800 [0 0 0 0] [energy 2.999973 ei 0.000 es 0.000 et 0.000 er 0.000] ------- [0:0 49:0 32 0] [46] 0 0
s 0.671428571 _0_ AGT  --- 47 cbr 800 [0 0 0 0] [energy 2.999973 ei 0.000 es 0.000 et 0.000 er 0.000] ------- [0:0 49:0 32 0] [47] 0 0
r 0.671428571 _0_ RTR  --- 47 cbr 800 [0 0 0 0] [energy 2.999973 ei 0.000 es 0.000 et 0.000 er 0.000] ------- [0:0 49:0 32 0] [47] 0 0
s 0.685714286 _0_ AGT  --- 48 cbr 800 [0 0 0 0] [energy 2.999973 ei 0.000 es 0.000 et 0.000 er 0.000] ------- [0:0 49:0 32 0] [48] 0 0
r 0.685714286 _0_ RTR  --- 48 cbr 800 [0 0 0 0] [energy 2.999973 ei 0.000 es 0.000 et 0.000 er 0.000] ------- [0:0 49:0 32 0] [48] 0 0
s 0.700000000 _0_ AGT  --- 49 cbr 800 [0 0 0 0] [energy 2.999973 ei 0.000 es 0.000 et 0.000 er 0.000] ------- [0:0 49:0 32 0] [49] 0 0
r 0.700000000 _0_ RTR  --- 49 cbr 800 [0 0 0 0] [energy 2.999973 ei 0.000 es 0.000 et 0.000 er 0.000] ------- [0:0 49:0 32 0] [49] 0 0
s 0.714285714 _0_ AGT  --- 50 cbr 800 [0 0 0 0] [energy 2.999973 ei 0.000 es 0.000 et 0.000 er 0.000] ------- [0:0 49:0 32 0] [50] 0 0
r 0.714285714 _0_ RTR  --- 50 cbr 800 [0 0 0 0] [energy 2.999973 ei 0.000 es 0.000 et 0.000 er 0.000] ------- [0:0 49:0 32 0] [50] 0 0
s 0.728571429 _0_ AGT  --- 51 cbr 800 [0 0 0 0] [energy 2.999973 ei 0.000 es 0.000 et 0.000 er 0.000] ------- [0:0 49:0 32 0] [51] 0 0
r 0.728571429 _0_ RTR  --- 51 cbr 800 [0 0 0 0] [energy 2.999973 ei 0.000 es 0.000 et 0.000 er 0.000] ------- [0:0 49:0 32 0] [51] 0 0
s 0.742857143 _0_ AGT  --- 52 cbr 800 [0 0 0 0] [energy 2.999973 ei 0.000 es 0.000 et 0.000 er 0.000] ------- [0:0 49:0 32 0] [52] 0 0
r 0.742857143 _0_ RTR  --- 52 cbr 800 [0 0 0 0] [energy 2.999973 ei 0.000 es 0.000 et 0.000 er 0.000] ------- [0:0 49:0 32 0] [52] 0 0
s 0.757142857 _0_ AGT  --- 53 cbr 800 [0 0 0 0] [energy 2.999973 ei 0.000 es 0.000 et 0.000 er 0.000] ------- [0:0 49:0 32 0] [53] 0 0
r 0.757142857 _0_ RTR  --- 53 cbr 800 [0 0 0 0] [energy 2.999973 ei 0.000 es 0.000 et 0.000 er 0.000] ------- [0:0 49:0 32 0] [53] 0 0
s 0.771428571 _0_ AGT  --- 54 cbr 800 [0 0 0 0] [energy 2.999973 ei 0.000 es 0.000 et 0.000 er 0.000] ------- [0:0 49:0 32 0] [54] 0 0
r 0.771428571 _0_ RTR  --- 54 cbr 800 [0 0 0 0] [energy 2.999973 ei 0.000 es 0.000 et 0.000 er 0.000] ------- [0:0 49:0 32 0] [54] 0 0
s 0.785714286 _0_ AGT  --- 55 cbr 800 [0 0 0 0] [energy 2.999973 ei 0.000 es 0.000 et 0.000 er 0.000] ------- [0:0 49:0 32 0] [55] 0 0
r 0.785714286 _0_ RTR  --- 55 cbr 800 [0 0 0 0] [energy 2.999973 ei 0.000 es 0.000 et 0.000 er 0.000] ------- [0:0 49:0 32 0] [55] 0 0
s 0.800000000 _0_ AGT  --- 56 cbr 800 [0 0 0 0] [energy 2.999973 ei 0.000 es 0.000 et 0.000 er 0.000] ------- [0:0 49:0 32 0] [56] 0 0
r 0.800000000 _0_ RTR  --- 56 cbr 800 [0 0 0 0] [energy 2.999973 ei 0.000 es 0.000 et 0.000 er 0.000] ------- [0:0 49:0 32 0] [56] 0 0
s 0.814285714 _0_ AGT  --- 57 cbr 800 [0 0 0 0] [energy 2.999973 ei 0.000 es 0.000 et 0.000 er 0.000] ------- [0:0 49:0 32 0] [57] 0 0
r 0.814285714 _0_ RTR  --- 57 cbr 800 [0 0 0 0] [energy 2.999973 ei 0.000 es 0.000 et 0.000 er 0.000] ------- [0:0 49:0 32 0] [57] 0 0
s 0.828571429 _0_ AGT  --- 58 cbr 800 [0 0 0 0] [energy 2.999973 ei 0.000 es 0.000 et 0.000 er 0.000] ------- [0:0 49:0 32 0] [58] 0 0
r 0.828571429 _0_ RTR  --- 58 cbr 800 [0 0 0 0] [energy 2.999973 ei 0.000 es 0.000 et 0.000 er 0.000] ------- [0:0 49:0 32 0] [58] 0 0
s 0.842857143 _0_ AGT  --- 59 cbr 800 [0 0 0 0] [energy 2.999973 ei 0.000 es 0.000 et 0.000 er 0.000] ------- [0:0 49:0 32 0] [59] 0 0
r 0.842857143 _0_ RTR  --- 59 cbr 800 [0 0 0 0] [energy 2.999973 ei 0.000 es 0.000 et 0.000 er 0.000] ------- [0:0 49:0 32 0] [59] 0 0
s 0.857142857 _0_ AGT  --- 60 cbr 800 [0 0 0 0] [energy 2.999973 ei 0.000 es 0.000 et 0.000 er 0.000] ------- [0:0 49:0 32 0] [60] 0 0
r 0.857142857 _0_ RTR  --- 60 cbr 800 [0 0 0 0] [energy 2.999973 ei 0.000 es 0.000 et 0.000 er 0.000] ------- [0:0 49:0 32 0] [60] 0 0
s 0.871428571 _0_ AGT  --- 61 cbr 800 [0 0 0 0] [energy 2.999973 ei 0.000 es 0.000 et 0.000 er 0.000] ------- [0:0 49:0 32 0] [61] 0 0
r 0.871428571 _0_ RTR  --- 61 cbr 800 [0 0 0 0] [energy 2.999973 ei 0.000 es 0.000 et 0.000 er 0.000] ------- [0:0 49:0 32 0] [61] 0 0
s 0.885714286 _0_ AGT  --- 62 cbr 800 [0 0 0 0] [energy 2.999973 ei 0.000 es 0.000 et 0.000 er 0.000] ------- [0:0 49:0 32 0] [62] 0 0
r 0.885714286 _0_ RTR  --- 62 cbr 800 [0 0 0 0] [energy 2.999973 ei 0.000 es 0.000 et 0.000 er 0.000] ------- [0:0 49:0 32 0] [62] 0 0
s 0.900000000 _0_ AGT  --- 63 cbr 800 [0 0 0 0] [energy 2.999973 ei 0.000 es 0.000 et 0.000 er 0.000] ------- [0:0 49:0 32 0] [63] 0 0
r 0.900000000 _0_ RTR  --- 63 cbr 800 [0 0 0 0] [energy 2.999973 ei 0.000 es 0.000 et 0.000 er 0.000] ------- [0:0 49:0 32 0] [63] 0 0
s 0.914285714 _0_ AGT  --- 64 cbr 800 [0 0 0 0] [energy 2.999973 ei 0.000 es 0.000 et 0.000 er 0.000] ------- [0:0 49:0 32 0] [64] 0 0
r 0.914285714 _0_ RTR  --- 64 cbr 800 [0 0 0 0] [energy 2.999973 ei 0.000 es 0.000 et 0.000 er 0.000] ------- [0:0 49:0 32 0] [64] 0 0
D 0.914285714 _0_ RTR  IFQ 0 cbr 820 [0 0 0 0] [energy 2.999973 ei 0.000 es 0.000 et 0.000 er 0.000] ------- [0:0 49:0 30 0] [0] 0 0
s 0.928571429 _0_ AGT  --- 65 cbr 800 [0 0 0 0] [energy 2.999973 ei 0.000 es 0.000 et 0.000 er 0.000] ------- [0:0 49:0 32 0] [65] 0 0
r 0.928571429 _0_ RTR  --- 65 cbr 800 [0 0 0 0] [energy 2.999973 ei 0.000 es 0.000 et 0.000 er 0.000] ------- [0:0 49:0 32 0] [65] 0 0
D 0.928571429 _0_ RTR  IFQ 1 cbr 820 [0 0 0 0] [energy 2.999973 ei 0.000 es 0.000 et 0.000 er 0.000] ------- [0:0 49:0 30 0] [1] 0 0
s 0.942857143 _0_ AGT  --- 66 cbr 800 [0 0 0 0] [energy 2.999973 ei 0.000 es 0.000 et 0.000 er 0.000] ------- [0:0 49:0 32 0] [66] 0 0
r 0.942857143 _0_ RTR  --- 66 cbr 800 [0 0 0 0] [energy 2.999973 ei 0.000 es 0.000 et 0.000 er 0.000] ------- [0:0 49:0 32 0] [66] 0 0
D 0.942857143 _0_ RTR  IFQ 2 cbr 820 [0 0 0 0] [energy 2.999973 ei 0.000 es 0.000 et 0.000 er 0.000] ------- [0:0 49:0 30 0] [2] 0 0
s 0.957142857 _0_ AGT  --- 67 cbr 800 [0 0 0 0] [energy 2.999973 ei 0.000 es 0.000 et 0.000 er 0.000] ------- [0:0 49:0 32 0] [67] 0 0
r 0.957142857 _0_ RTR  --- 67 cbr 800 [0 0 0 0] [energy 2.999973 ei 0.000 es 0.000 et 0.000 er 0.000] ------- [0:0 49:0 32 0] [67] 0 0
D 0.957142857 _0_ RTR  IFQ 3 cbr 820 [0 0 0 0] [energy 2.999973 ei 0.000 es 0.000 et 0.000 er 0.000] ------- [0:0 49:0 30 0] [3] 0 0
s 0.971428571 _0_ AGT  --- 68 cbr 800 [0 0 0 0] [energy 2.999973 ei 0.000 es 0.000 et 0.000 er 0.000] ------- [0:0 49:0 32 0] [68] 0 0
r 0.971428571 _0_ RTR  --- 68 cbr 800 [0 0 0 0] [energy 2.999973 ei 0.000 es 0.000 et 0.000 er 0.000] ------- [0:0 49:0 32 0] [68] 0 0
D 0.971428571 _0_ RTR  IFQ 4 cbr 820 [0 0 0 0] [energy 2.999973 ei 0.000 es 0.000 et 0.000 er 0.000] ------- [0:0 49:0 30 0] [4] 0 0
s 0.985714286 _0_ AGT  --- 69 cbr 800 [0 0 0 0] [energy 2.999973 ei 0.000 es 0.000 et 0.000 er 0.000] ------- [0:0 49:0 32 0] [69] 0 0
r 0.985714286 _0_ RTR  --- 69 cbr 800 [0 0 0 0] [energy 2.999973 ei 0.000 es 0.000 et 0.000 er 0.000] ------- [0:0 49:0 32 0] [69] 0 0
D 0.985714286 _0_ RTR  IFQ 5 cbr 820 [0 0 0 0] [energy 2.999973 ei 0.000 es 0.000 et 0.000 er 0.000] ------- [0:0 49:0 30 0] [5] 0 0
s 1.000000000 _0_ AGT  --- 70 cbr 800 [0 0 0 0] [energy 2.999973 ei 0.000 es 0.000 et 0.000 er 0.000] ------- [0:0 49:0 32 0] [70] 0 0
r 1.000000000 _0_ RTR  --- 70 cbr 800 [0 0 0 0] [energy 2.999973 ei 0.000 es 0.000 et 0.000 er 0.000] ------- [0:0 49:0 32 0] [70] 0 0
D 1.000000000 _0_ RTR  IFQ 6 cbr 820 [0 0 0 0] [energy 2.999973 ei 0.000 es 0.000 et 0.000 er 0.000] ------- [0:0 49:0 30 0] [6] 0 0
s 1.014285714 _0_ AGT  --- 71 cbr 800 [0 0 0 0] [energy 2.999973 ei 0.000 es 0.000 et 0.000 er 0.000] ------- [0:0 49:0 32 0] [71] 0 0
r 1.014285714 _0_ RTR  --- 71 cbr 800 [0 0 0 0] [energy 2.999973 ei 0.000 es 0.000 et 0.000 er 0.000] ------- [0:0 49:0 32 0] [71] 0 0
D 1.014285714 _0_ RTR  IFQ 7 cbr 820 [0 0 0 0] [energy 2.999973 ei 0.000 es 0.000 et 0.000 er 0.000] ------- [0:0 49:0 30 0] [7] 0 0
s 1.028571429 _0_ AGT  --- 72 cbr 800 [0 0 0 0] [energy 2.999973 ei 0.000 es 0.000 et 0.000 er 0.000] ------- [0:0 49:0 32 0] [72] 0 0
r 1.028571429 _0_ RTR  --- 72 cbr 800 [0 0 0 0] [energy 2.999973 ei 0.000 es 0.000 et 0.000 er 0.000] ------- [0:0 49:0 32 0] [72] 0 0
D 1.028571429 _0_ RTR  IFQ 8 cbr 820 [0 0 0 0] [energy 2.999973 ei 0.000 es 0.000 et 0.000 er 0.000] ------- [0:0 49:0 30 0] [8] 0 0
s 1.042857143 _0_ AGT  --- 73 cbr 800 [0 0 0 0] [energy 2.999973 ei 0.000 es 0.000 et 0.000 er 0.000] ------- [0:0 49:0 32 0] [73] 0 0
r 1.042857143 _0_ RTR  --- 73 cbr 800 [0 0 0 0] [energy 2.999973 ei 0.000 es 0.000 et 0.000 er 0.000] ------- [0:0 49:0 32 0] [73] 0 0
D 1.042857143 _0_ RTR  IFQ 9 cbr 820 [0 0 0 0] [energy 2.999973 ei 0.000 es 0.000 et 0.000 er 0.000] ------- [0:0 49:0 30 0] [9] 0 0
s 1.057142857 _0_ AGT  --- 74 cbr 800 [0 0 0 0] [energy 2.999973 ei 0.000 es 0.000 et 0.000 er 0.000] ------- [0:0 49:0 32 0] [74] 0 0
r 1.057142857 _0_ RTR  --- 74 cbr 800 [0 0 0 0] [energy 2.999973 ei 0.000 es 0.000 et 0.000 er 0.000] ------- [0:0 49:0 32 0] [74] 0 0
D 1.057142857 _0_ RTR  IFQ 10 cbr 820 [0 0 0 0] [energy 2.999973 ei 0.000 es 0.000 et 0.000 er 0.000] ------- [0:0 49:0 30 0] [10] 0 0
s 1.071428571 _0_ AGT  --- 75 cbr 800 [0 0 0 0] [energy 2.999973 ei 0.000 es 0.000 et 0.000 er 0.000] ------- [0:0 49:0 32 0] [75] 0 0
r 1.071428571 _0_ RTR  --- 75 cbr 800 [0 0 0 0] [energy 2.999973 ei 0.000 es 0.000 et 0.000 er 0.000] ------- [0:0 49:0 32 0] [75] 0 0
D 1.071428571 _0_ RTR  IFQ 11 cbr 820 [0 0 0 0] [energy 2.999973 ei 0.000 es 0.000 et 0.000 er 0.000] ------- [0:0 49:0 30 0] [11] 0 0
s 1.085714286 _0_ AGT  --- 76 cbr 800 [0 0 0 0] [energy 2.999973 ei 0.000 es 0.000 et 0.000 er 0.000] ------- [0:0 49:0 32 0] [76] 0 0
r 1.085714286 _0_ RTR  --- 76 cbr 800 [0 0 0 0] [energy 2.999973 ei 0.000 es 0.000 et 0.000 er 0.000] ------- [0:0 49:0 32 0] [76] 0 0
D 1.085714286 _0_ RTR  IFQ 12 cbr 820 [0 0 0 0] [energy 2.999973 ei 0.000 es 0.000 et 0.000 er 0.000] ------- [0:0 49:0 30 0] [12] 0 0
s 1.100000000 _0_ AGT  --- 77 cbr 800 [0 0 0 0] [energy 2.999973 ei 0.000 es 0.000 et 0.000 er 0.000] ------- [0:0 49:0 32 0] [77] 0 0
r 1.100000000 _0_ RTR  --- 77 cbr 800 [0 0 0 0] [energy 2.999973 ei 0.000 es 0.000 et 0.000 er 0.000] ------- [0:0 49:0 32 0] [77] 0 0
D 1.100000000 _0_ RTR  IFQ 13 cbr 820 [0 0 0 0] [energy 2.999973 ei 0.000 es 0.000 et 0.000 er 0.000] ------- [0:0 49:0 30 0] [13] 0 0
s 1.114285714 _0_ AGT  --- 78 cbr 800 [0 0 0 0] [energy 2.999973 ei 0.000 es 0.000 et 0.000 er 0.000] ------- [0:0 49:0 32 0] [78] 0 0
r 1.114285714 _0_ RTR  --- 78 cbr 800 [0 0 0 0] [energy 2.999973 ei 0.000 es 0.000 et 0.000 er 0.000] ------- [0:0 49:0 32 0] [78] 0 0
D 1.114285714 _0_ RTR  IFQ 14 cbr 820 [0 0 0 0] [energy 2.999973 ei 0.000 es 0.000 et 0.000 er 0.000] ------- [0:0 49:0 30 0] [14] 0 0
s 1.128571429 _0_ AGT  --- 79 cbr 800 [0 0 0 0] [energy 2.999973 ei 0.000 es 0.000 et 0.000 er 0.000] ------- [0:0 49:0 32 0] [79] 0 0
r 1.128571429 _0_ RTR  --- 79 cbr 800 [0 0 0 0] [energy 2.999973 ei 0.000 es 0.000 et 0.000 er 0.000] ------- [0:0 49:0 32 0] [79] 0 0
D 1.128571429 _0_ RTR  IFQ 15 cbr 820 [0 0 0 0] [energy 2.999973 ei 0.000 es 0.000 et 0.000 er 0.000] ------- [0:0 49:0 30 0] [15] 0 0
s 1.142857143 _0_ AGT  --- 80 cbr 800 [0 0 0 0] [energy 2.999973 ei 0.000 es 0.000 et 0.000 er 0.000] ------- [0:0 49:0 32 0] [80] 0 0
r 1.142857143 _0_ RTR  --- 80 cbr 800 [0 0 0 0] [energy 2.999973 ei 0.000 es 0.000 et 0.000 er 0.000] ------- [0:0 49:0 32 0] [80] 0 0
D 1.142857143 _0_ RTR  IFQ 16 cbr 820 [0 0 0 0] [energy 2.999973 ei 0.000 es 0.000 et 0.000 er 0.000] ------- [0:0 49:0 30 0] [16] 0 0
s 1.157142857 _0_ AGT  --- 81 cbr 800 [0 0 0 0] [energy 2.999973 ei 0.000 es 0.000 et 0.000 er 0.000] ------- [0:0 49:0 32 0] [81] 0 0
r 1.157142857 _0_ RTR  --- 81 cbr 800 [0 0 0 0] [energy 2.999973 ei 0.000 es 0.000 et 0.000 er 0.000] ------- [0:0 49:0 32 0] [81] 0 0
D 1.157142857 _0_ RTR  IFQ 17 cbr 820 [0 0 0 0] [energy 2.999973 ei 0.000 es 0.000 et 0.000 er 0.000] ------- [0:0 49:0 30 0] [17] 0 0
s 1.171428571 _0_ AGT  --- 82 cbr 800 [0 0 0 0] [energy 2.999973 ei 0.000 es 0.000 et 0.000 er 0.000] ------- [0:0 49:0 32 0] [82] 0 0
r 1.171428571 _0_ RTR  --- 82 cbr 800 [0 0 0 0] [energy 2.999973 ei 0.000 es 0.000 et 0.000 er 0.000] ------- [0:0 49:0 32 0] [82] 0 0
D 1.171428571 _0_ RTR  IFQ 18 cbr 820 [0 0 0 0] [energy 2.999973 ei 0.000 es 0.000 et 0.000 er 0.000] ------- [0:0 49:0 30 0] [18] 0 0
s 1.185714286 _0_ AGT  --- 83 cbr 800 [0 0 0 0] [energy 2.999973 ei 0.000 es 0.000 et 0.000 er 0.000] ------- [0:0 49:0 32 0] [83] 0 0
r 1.185714286 _0_ RTR  --- 83 cbr 800 [0 0 0 0] [energy 2.999973 ei 0.000 es 0.000 et 0.000 er 0.000] ------- [0:0 49:0 32 0] [83] 0 0
D 1.185714286 _0_ RTR  IFQ 19 cbr 820 [0 0 0 0] [energy 2.999973 ei 0.000 es 0.000 et 0.000 er 0.000] ------- [0:0 49:0 30 0] [19] 0 0
s 1.200000000 _0_ AGT  --- 84 cbr 800 [0 0 0 0] [energy 2.999973 ei 0.000 es 0.000 et 0.000 er 0.000] ------- [0:0 49:0 32 0] [84] 0 0
r 1.200000000 _0_ RTR  --- 84 cbr 800 [0 0 0 0] [energy 2.999973 ei 0.000 es 0.000 et 0.000 er 0.000] ------- [0:0 49:0 32 0] [84] 0 0
D 1.200000000 _0_ RTR  IFQ 20 cbr 820 [0 0 0 0] [energy 2.999973 ei 0.000 es 0.000 et 0.000 er 0.000] ------- [0:0 49:0 30 0] [20] 0 0
s 1.214285714 _0_ AGT  --- 85 cbr 800 [0 0 0 0] [energy 2.999973 ei 0.000 es 0.000 et 0.000 er 0.000] ------- [0:0 49:0 32 0] [85] 0 0
r 1.214285714 _0_ RTR  --- 85 cbr 800 [0 0 0 0] [energy 2.999973 ei 0.000 es 0.000 et 0.000 er 0.000] ------- [0:0 49:0 32 0] [85] 0 0
D 1.214285714 _0_ RTR  IFQ 21 cbr 820 [0 0 0 0] [energy 2.999973 ei 0.000 es 0.000 et 0.000 er 0.000] ------- [0:0 49:0 30 0] [21] 0 0
s 1.228571429 _0_ AGT  --- 86 cbr 800 [0 0 0 0] [energy 2.999973 ei 0.000 es 0.000 et 0.000 er 0.000] ------- [0:0 49:0 32 0] [86] 0 0
r 1.228571429 _0_ RTR  --- 86 cbr 800 [0 0 0 0] [energy 2.999973 ei 0.000 es 0.000 et 0.000 er 0.000] ------- [0:0 49:0 32 0] [86] 0 0
D 1.228571429 _0_ RTR  IFQ 22 cbr 820 [0 0 0 0] [energy 2.999973 ei 0.000 es 0.000 et 0.000 er 0.000] ------- [0:0 49:0 30 0] [22] 0 0
s 1.242857143 _0_ AGT  --- 87 cbr 800 [0 0 0 0] [energy 2.999973 ei 0.000 es 0.000 et 0.000 er 0.000] ------- [0:0 49:0 32 0] [87] 0 0
r 1.242857143 _0_ RTR  --- 87 cbr 800 [0 0 0 0] [energy 2.999973 ei 0.000 es 0.000 et 0.000 er 0.000] ------- [0:0 49:0 32 0] [87] 0 0
D 1.242857143 _0_ RTR  IFQ 23 cbr 820 [0 0 0 0] [energy 2.999973 ei 0.000 es 0.000 et 0.000 er 0.000] ------- [0:0 49:0 30 0] [23] 0 0
s 1.257142857 _0_ AGT  --- 88 cbr 800 [0 0 0 0] [energy 2.999973 ei 0.000 es 0.000 et 0.000 er 0.000] ------- [0:0 49:0 32 0] [88] 0 0
r 1.257142857 _0_ RTR  --- 88 cbr 800 [0 0 0 0] [energy 2.999973 ei 0.000 es 0.000 et 0.000 er 0.000] ------- [0:0 49:0 32 0] [88] 0 0
D 1.257142857 _0_ RTR  IFQ 24 cbr 820 [0 0 0 0] [energy 2.999973 ei 0.000 es 0.000 et 0.000 er 0.000] ------- [0:0 49:0 30 0] [24] 0 0
s 1.271428571 _0_ AGT  --- 89 cbr 800 [0 0 0 0] [energy 2.999973 ei 0.000 es 0.000 et 0.000 er 0.000] ------- [0:0 49:0 32 0] [89] 0 0
r 1.271428571 _0_ RTR  --- 89 cbr 800 [0 0 0 0] [energy 2.999973 ei 0.000 es 0.000 et 0.000 er 0.000] ------- [0:0 49:0 32 0] [89] 0 0
D 1.271428571 _0_ RTR  IFQ 25 cbr 820 [0 0 0 0] [energy 2.999973 ei 0.000 es 0.000 et 0.000 er 0.000] ------- [0:0 49:0 30 0] [25] 0 0
s 1.285714286 _0_ AGT  --- 90 cbr 800 [0 0 0 0] [energy 2.999973 ei 0.000 es 0.000 et 0.000 er 0.000] ------- [0:0 49:0 32 0] [90] 0 0
r 1.285714286 _0_ RTR  --- 90 cbr 800 [0 0 0 0] [energy 2.999973 ei 0.000 es 0.000 et 0.000 er 0.000] ------- [0:0 49:0 32 0] [90] 0 0
D 1.285714286 _0_ RTR  IFQ 26 cbr 820 [0 0 0 0] [energy 2.999973 ei 0.000 es 0.000 et 0.000 er 0.000] ------- [0:0 49:0 30 0] [26] 0 0
s 1.300000000 _0_ AGT  --- 91 cbr 800 [0 0 0 0] [energy 2.999973 ei 0.000 es 0.000 et 0.000 er 0.000] ------- [0:0 49:0 32 0] [91] 0 0
r 1.300000000 _0_ RTR  --- 91 cbr 800 [0 0 0 0] [energy 2.999973 ei 0.000 es 0.000 et 0.000 er 0.000] ------- [0:0 49:0 32 0] [91] 0 0
D 1.300000000 _0_ RTR  IFQ 27 cbr 820 [0 0 0 0] [energy 2.999973 ei 0.000 es 0.000 et 0.000 er 0.000] ------- [0:0 49:0 30 0] [27] 0 0
s 1.314285714 _0_ AGT  --- 92 cbr 800 [0 0 0 0] [energy 2.999973 ei 0.000 es 0.000 et 0.000 er 0.000] ------- [0:0 49:0 32 0] [92] 0 0
r 1.314285714 _0_ RTR  --- 92 cbr 800 [0 0 0 0] [energy 2.999973 ei 0.000 es 0.000 et 0.000 er 0.000] ------- [0:0 49:0 32 0] [92] 0 0
D 1.314285714 _0_ RTR  IFQ 28 cbr 820 [0 0 0 0] [energy 2.999973 ei 0.000 es 0.000 et 0.000 er 0.000] ------- [0:0 49:0 30 0] [28] 0 0
s 1.328571429 _0_ AGT  --- 93 cbr 800 [0 0 0 0] [energy 2.999973 ei 0.000 es 0.000 et 0.000 er 0.000] ------- [0:0 49:0 32 0] [93] 0 0
r 1.328571429 _0_ RTR  --- 93 cbr 800 [0 0 0 0] [energy 2.999973 ei 0.000 es 0.000 et 0.000 er 0.000] ------- [0:0 49:0 32 0] [93] 0 0
D 1.328571429 _0_ RTR  IFQ 29 cbr 820 [0 0 0 0] [energy 2.999973 ei 0.000 es 0.000 et 0.000 er 0.000] ------- [0:0 49:0 30 0] [29] 0 0
s 1.342857143 _0_ AGT  --- 94 cbr 800 [0 0 0 0] [energy 2.999973 ei 0.000 es 0.000 et 0.000 er 0.000] ------- [0:0 49:0 32 0] [94] 0 0
r 1.342857143 _0_ RTR  --- 94 cbr 800 [0 0 0 0] [energy 2.999973 ei 0.000 es 0.000 et 0.000 er 0.000] ------- [0:0 49:0 32 0] [94] 0 0
D 1.342857143 _0_ RTR  IFQ 30 cbr 820 [0 0 0 0] [energy 2.999973 ei 0.000 es 0.000 et 0.000 er 0.000] ------- [0:0 49:0 30 0] [30] 0 0